                                                                        
SP        RB3LYP                                                      3-21G               
Number of atoms                            I                6
Info1-9                                    I   N=           9
          19          19           0           0           0         110
           1          18        -502
Charge                                     I                0
Multiplicity                               I                1
Number of electrons                        I               16
Number of alpha electrons                  I                8
Number of beta electrons                   I                8
Number of basis functions                  I               26
Number of independent functions            I               26
Number of point charges in /Mol/           I                0
Number of translation vectors              I                0
Atomic numbers                             I   N=           6
           6           6           1           1           1           1
Nuclear charges                            R   N=           6
  6.00000000E+00  6.00000000E+00  1.00000000E+00  1.00000000E+00  1.00000000E+00
  1.00000000E+00
Current cartesian coordinates              R   N=          18
 -1.31532823E+00  2.26535145E-01  1.41360946E-02  1.20608500E+00  7.21129284E-01
  2.31822736E-01 -2.96338057E+00  1.35004290E+00  3.27324149E-01 -1.78108862E+00
 -1.72448962E+00 -3.91901650E-01  3.06278049E+00  7.81082924E-01 -4.50296371E-01
  1.79093173E+00 -1.35430080E+00  2.68911922E-01
Force Field                                I                0
Int Atom Types                             I   N=           6
           0           0           0           0           0           0
MM charges                                 R   N=           6
  0.00000000E+00  0.00000000E+00  0.00000000E+00  0.00000000E+00  0.00000000E+00
  0.00000000E+00
Integer atomic weights                     I   N=           6
          12          12           1           1           1           1
Real atomic weights                        R   N=           6
  1.20000000E+01  1.20000000E+01  1.00782504E+00  1.00782504E+00  1.00782504E+00
  1.00782504E+00
Atom fragment info                         I   N=           6
           0           0           0           0           0           0
Atom residue num                           I   N=           6
           0           0           0           0           0           0
Nuclear spins                              I   N=           6
           0           0           1           1           1           1
Nuclear ZEff                               R   N=           6
 -3.60000000E+00 -3.60000000E+00 -1.00000000E+00 -1.00000000E+00 -1.00000000E+00
 -1.00000000E+00
Nuclear ZNuc                               R   N=           6
  6.00000000E+00  6.00000000E+00  1.00000000E+00  1.00000000E+00  1.00000000E+00
  1.00000000E+00
Nuclear QMom                               R   N=           6
  0.00000000E+00  0.00000000E+00  0.00000000E+00  0.00000000E+00  0.00000000E+00
  0.00000000E+00
Nuclear GFac                               R   N=           6
  0.00000000E+00  0.00000000E+00  2.79284600E+00  2.79284600E+00  2.79284600E+00
  2.79284600E+00
MicOpt                                     I   N=           6
          -1          -1          -1          -1          -1          -1
Number of contracted shells                I               14
Number of primitive shells                 I               24
Pure/Cartesian d shells                    I                1
Pure/Cartesian f shells                    I                0
Highest angular momentum                   I                1
Largest degree of contraction              I                3
Shell types                                I   N=          14
           0          -1          -1           0          -1          -1
           0           0           0           0           0           0
           0           0
Number of primitives per shell             I   N=          14
           3           2           1           3           2           1
           2           1           2           1           2           1
           2           1
Shell to atom map                          I   N=          14
           1           1           1           2           2           2
           3           3           4           4           5           5
           6           6
Primitive exponents                        R   N=          24
  1.72256000E+02  2.59109000E+01  5.53335000E+00  3.66498000E+00  7.70545000E-01
  1.95857000E-01  1.72256000E+02  2.59109000E+01  5.53335000E+00  3.66498000E+00
  7.70545000E-01  1.95857000E-01  5.44717800E+00  8.24547240E-01  1.83191580E-01
  5.44717800E+00  8.24547240E-01  1.83191580E-01  5.44717800E+00  8.24547240E-01
  1.83191580E-01  5.44717800E+00  8.24547240E-01  1.83191580E-01
Contraction coefficients                   R   N=          24
  6.17669074E-02  3.58794043E-01  7.00713084E-01 -3.95895162E-01  1.21583436E+00
  1.00000000E+00  6.17669074E-02  3.58794043E-01  7.00713084E-01 -3.95895162E-01
  1.21583436E+00  1.00000000E+00  1.56284979E-01  9.04690877E-01  1.00000000E+00
  1.56284979E-01  9.04690877E-01  1.00000000E+00  1.56284979E-01  9.04690877E-01
  1.00000000E+00  1.56284979E-01  9.04690877E-01  1.00000000E+00
P(S=P) Contraction coefficients            R   N=          24
  0.00000000E+00  0.00000000E+00  0.00000000E+00  2.36459947E-01  8.60618806E-01
  1.00000000E+00  0.00000000E+00  0.00000000E+00  0.00000000E+00  2.36459947E-01
  8.60618806E-01  1.00000000E+00  0.00000000E+00  0.00000000E+00  0.00000000E+00
  0.00000000E+00  0.00000000E+00  0.00000000E+00  0.00000000E+00  0.00000000E+00
  0.00000000E+00  0.00000000E+00  0.00000000E+00  0.00000000E+00
Coordinates of each shell                  R   N=          42
 -1.31532823E+00  2.26535145E-01  1.41360946E-02 -1.31532823E+00  2.26535145E-01
  1.41360946E-02 -1.31532823E+00  2.26535145E-01  1.41360946E-02  1.20608500E+00
  7.21129284E-01  2.31822736E-01  1.20608500E+00  7.21129284E-01  2.31822736E-01
  1.20608500E+00  7.21129284E-01  2.31822736E-01 -2.96338057E+00  1.35004290E+00
  3.27324149E-01 -2.96338057E+00  1.35004290E+00  3.27324149E-01 -1.78108862E+00
 -1.72448962E+00 -3.91901650E-01 -1.78108862E+00 -1.72448962E+00 -3.91901650E-01
  3.06278049E+00  7.81082924E-01 -4.50296371E-01  3.06278049E+00  7.81082924E-01
 -4.50296371E-01  1.79093173E+00 -1.35430080E+00  2.68911922E-01  1.79093173E+00
 -1.35430080E+00  2.68911922E-01
Constraint Structure                       R   N=          18
 -1.31532823E+00  2.26535145E-01  1.41360946E-02  1.20608500E+00  7.21129284E-01
  2.31822736E-01 -2.96338057E+00  1.35004290E+00  3.27324149E-01 -1.78108862E+00
 -1.72448962E+00 -3.91901650E-01  3.06278049E+00  7.81082924E-01 -4.50296371E-01
  1.79093173E+00 -1.35430080E+00  2.68911922E-01
Num ILSW                                   I              100
ILSW                                       I   N=         100
           0           1           0           0           2           0
           0           0           0           0         402          -1
           0           0           0           0           0           0
           0           0           1           0           0           0
           1           1           0           0           0           0
           0           0      100000           0          -1           0
           0           0           0           0           0           0
           0           0           0           1           0           0
           0           0           1           0           0           0
           0           0           4          41           0           0
           0           0           5           0           0           0
           0           0           0           0           0           0
           0           0           0           0           0           0
           0           0           0           0           0           0
           0           0           0           0           0           0
           0           0           0           0           0           0
           0           0           0           0
Num RLSW                                   I               41
RLSW                                       R   N=          41
  8.00000000E-01  7.20000000E-01  1.00000000E+00  8.10000000E-01  2.00000000E-01
  0.00000000E+00  0.00000000E+00  1.00000000E+00  0.00000000E+00  0.00000000E+00
  0.00000000E+00  0.00000000E+00  1.00000000E+00  0.00000000E+00  0.00000000E+00
  0.00000000E+00  0.00000000E+00  1.00000000E+00  0.00000000E+00  0.00000000E+00
  0.00000000E+00  0.00000000E+00  1.00000000E+00  0.00000000E+00  0.00000000E+00
  0.00000000E+00  0.00000000E+00  1.00000000E+00  0.00000000E+00  0.00000000E+00
  0.00000000E+00  0.00000000E+00  1.00000000E+00  0.00000000E+00  0.00000000E+00
  0.00000000E+00  0.00000000E+00  0.00000000E+00  1.00000000E+00  1.00000000E+00
  0.00000000E+00
MxBond                                     I                3
NBond                                      I   N=           6
           3           3           1           1           1           1
IBond                                      I   N=          18
           2           3           4           1           5           6
           1           0           0           1           0           0
           2           0           0           2           0           0
RBond                                      R   N=          18
  2.00000000E+00  1.00000000E+00  1.00000000E+00  2.00000000E+00  1.00000000E+00
  1.00000000E+00  1.00000000E+00  0.00000000E+00  0.00000000E+00  1.00000000E+00
  0.00000000E+00  0.00000000E+00  1.00000000E+00  0.00000000E+00  0.00000000E+00
  1.00000000E+00  0.00000000E+00  0.00000000E+00
Virial Ratio                               R      2.008599070659843E+00
SCF Energy                                 R     -7.804809147267605E+01
Total Energy                               R     -7.804809147267605E+01
RMS Density                                R      2.202186561363646E-09
External E-field                           R   N=          35
  0.00000000E+00  0.00000000E+00  0.00000000E+00  0.00000000E+00  0.00000000E+00
  0.00000000E+00  0.00000000E+00  0.00000000E+00  0.00000000E+00  0.00000000E+00
  0.00000000E+00  0.00000000E+00  0.00000000E+00  0.00000000E+00  0.00000000E+00
  0.00000000E+00  0.00000000E+00  0.00000000E+00  0.00000000E+00  0.00000000E+00
  0.00000000E+00  0.00000000E+00  0.00000000E+00  0.00000000E+00  0.00000000E+00
  0.00000000E+00  0.00000000E+00  0.00000000E+00  0.00000000E+00  0.00000000E+00
  0.00000000E+00  0.00000000E+00  0.00000000E+00  0.00000000E+00  0.00000000E+00
IOpCl                                      I                0
IROHF                                      I                0
Alpha Orbital Energies                     R   N=          26
 -1.01440270E+01 -1.01286614E+01 -7.76414981E-01 -6.14227205E-01 -4.64997713E-01
 -4.42240071E-01 -3.13121723E-01 -2.44111029E-01 -2.17643930E-02  9.94257319E-02
  1.42316035E-01  1.91300988E-01  2.41292529E-01  3.67395987E-01  6.97567012E-01
  7.35694017E-01  7.70722906E-01  7.97729017E-01  8.47737926E-01  9.11499685E-01
  9.71938048E-01  1.04952202E+00  1.08354262E+00  1.15147873E+00  1.40782307E+00
  1.69080200E+00
Alpha MO coefficients                      R   N=         676
  9.84842268E-01  1.06043980E-01  2.07987822E-04 -6.07779281E-04  3.17343938E-04
 -7.84598884E-02 -9.04978557E-03  1.41284884E-03 -1.32572886E-03 -3.62601244E-02
 -7.60471887E-03  3.09835139E-03  4.52297785E-04  5.06974601E-05  2.65525518E-02
 -1.77880713E-02 -3.30378075E-03 -1.95202774E-04 -2.52336778E-03  1.29486634E-02
 -1.51604459E-03  1.50997380E-02 -1.48085056E-04  3.73338513E-03 -4.08287759E-04
  3.64679222E-04  3.61750337E-02 -8.97978030E-05 -2.55822832E-03 -4.75818022E-04
 -4.04789609E-05  2.45491502E-02  1.59384974E-02 -7.26138477E-04 -3.11757995E-04
  9.84879251E-01  1.06110259E-01  4.51286297E-04 -3.02583600E-03 -9.69674596E-04
 -7.56578971E-02  7.86208707E-03  1.42061382E-02  4.00548281E-03 -7.73294064E-04
  3.70961953E-03 -1.41381858E-03 -8.82816604E-04 -2.70512234E-03  1.11485701E-02
  4.61956750E-04  1.49377822E-02 -1.56900528E-01  1.70117570E-01  1.01212962E-01
 -7.49874593E-03  6.78820859E-03  3.48165309E-01  1.99886359E-02 -1.34718954E-02
  5.53006308E-03 -1.67600122E-01  1.78958427E-01 -7.05922334E-02 -7.84618040E-02
 -2.59260266E-02  3.82410434E-01  5.24329144E-03 -6.36241300E-02 -2.03770137E-02
  6.41681033E-02  3.23395789E-03  8.23042379E-02  7.48753665E-03  9.21862383E-02
  6.40747033E-03  1.07212686E-01  1.10690034E-02 -1.40801937E-01  1.48330852E-01
 -1.02836101E-01 -1.56920772E-03  9.31579771E-03  4.37158348E-01 -2.88361063E-02
 -2.87444426E-02 -2.09648617E-03  1.04992646E-01 -1.07210426E-01 -2.00027098E-01
  5.22176624E-02  3.68493321E-02 -3.48881885E-01 -7.94102991E-02  6.33601947E-02
  2.78868130E-02  1.41592652E-01  7.05742942E-02  1.08418699E-01  2.85897116E-02
 -1.88249759E-01 -9.50555221E-02 -1.14774733E-01 -4.61840131E-02  1.21689704E-02
 -6.14893743E-03  3.60985195E-01  3.14096890E-02  2.51236948E-02 -7.96801345E-02
  2.22456236E-01 -7.51213539E-03  7.64182834E-03 -2.94510860E-02  3.83208191E-02
 -3.35128256E-01 -4.43877923E-02  3.74182686E-02  5.94678336E-02 -1.78051620E-01
 -2.02307678E-02  2.84751104E-02 -1.71685371E-01 -1.17341831E-01 -8.47370139E-02
 -7.89724810E-02 -1.80499954E-01 -1.49710536E-01 -1.49053659E-02 -2.67906401E-02
 -8.50437628E-03  1.22621579E-02 -5.67013798E-03  3.56886008E-01  6.94213250E-02
  2.23171311E-02 -3.05862511E-02  2.53210937E-01  4.79065157E-02 -5.46601937E-02
  5.87319528E-02 -5.13130427E-02  1.70588124E-01 -1.08759269E-04  1.88847434E-01
 -1.64846247E-02  9.33825645E-02  1.80562409E-03  1.46986867E-01  1.03611825E-01
 -2.20299384E-01 -1.84816130E-01  4.26124155E-02  4.22532202E-02 -9.12046260E-02
 -1.15848701E-01  2.03994631E-02 -2.17335833E-02 -9.41799276E-02  6.87539394E-02
  2.31525067E-01 -1.02987084E-01 -7.33680248E-02  4.03357347E-02  2.14444578E-01
  2.00257739E-02 -2.03463698E-02  1.44656560E-02 -2.48095046E-01  2.36649544E-01
 -5.89053960E-02 -7.80469216E-04 -2.03563735E-01  2.14456347E-01  1.11481068E-01
  1.31463832E-01 -1.01944701E-01 -1.14326342E-01 -9.82765901E-02 -1.29837045E-01
  1.99217885E-01  2.78683600E-01 -4.71910755E-04 -6.95618144E-03  1.32330822E-02
 -1.60979709E-01  2.40007886E-01  7.29904017E-02  2.96228242E-02 -1.30726970E-01
  2.76479294E-01 -4.74627997E-02  4.83243689E-02  4.45937997E-02  2.37381425E-01
  2.48650013E-01  1.69986212E-01  6.46029775E-02  2.40928545E-01  2.81645495E-01
 -9.42995804E-02 -1.40332771E-01  1.08989851E-01  1.49219102E-01  5.83054059E-02
  1.00824806E-01 -1.48191176E-01 -2.27049539E-01 -2.34954775E-02  3.38477754E-02
  6.73801765E-02 -6.90879523E-02  3.51447645E-01  6.83123604E-02  1.34450319E-02
 -1.71147174E-01  5.56398098E-01  4.13712256E-02 -2.66383913E-02 -5.24450314E-02
 -8.21690440E-02 -3.11283275E-01 -2.87318061E-01 -1.70275967E-01 -1.58541547E-01
 -4.88765962E-01  2.17219499E-02  2.71066050E-02 -3.43663372E-02 -1.61847900E-01
  1.22163613E-01  3.62515208E-01 -5.91477076E-02 -2.24034613E-01  9.02515419E-02
 -6.98379827E-02 -2.53578234E-02  1.05965733E-01  1.03903879E-01 -9.14456724E-01
  1.40080290E-01  3.27397399E-01  2.58972375E-01  2.22929082E-02 -1.15601505E-02
 -6.52185762E-02  2.54472935E-01 -1.21628577E-01 -4.08689992E-01 -1.90351414E-01
  6.54079651E-01 -2.72844298E-01 -1.51609067E-03  2.02131254E-01  6.35506675E-02
  9.21480153E-01 -9.42033775E-02 -2.20874808E-01  1.16656106E-01  1.15669933E+00
  7.80628596E-02 -6.78308482E-02 -5.55520775E-02 -1.34531357E-01  2.75277024E-02
 -7.18848544E-01 -2.32520627E-02 -3.24539243E-01  1.15828884E-01 -1.45064669E-01
  7.48047397E-02  1.33982312E-01 -2.74457402E-02 -1.34393232E-01  1.81203994E+00
  5.05284313E-01 -1.48157004E-01 -4.12401602E-01  5.87350592E-02  6.57438932E-01
 -3.31962603E-03 -7.47620327E-03 -8.98491275E-02 -1.53761765E+00  2.01615811E-02
 -5.87513119E-01  1.00847028E-01 -4.45119539E-02  2.89276483E-01 -4.46280301E-02
 -5.62969488E-02 -1.50707276E+00  8.73799759E-01 -2.06322326E-01 -2.19608019E-01
  2.10966953E-02  4.08833257E-03 -1.04627672E-01 -1.09918612E-01  9.44775788E-02
 -5.23613172E-01 -2.81823094E-01 -1.55602169E-01  3.13475384E-01  6.12265501E-02
  1.71230686E+00  2.85913202E-02  6.00407470E-01  5.68386629E-02  8.59396753E-01
 -8.19080856E-02 -4.62174025E-01  2.22491329E-02  7.52818809E-03  1.55829984E-02
  3.55203997E-01  7.44085712E-02 -4.49484697E-01 -2.09227772E-01  1.31749781E+00
  2.78034598E-01 -3.01319880E-02  1.38041728E-02  8.31705754E-02 -1.93859309E-01
  8.38309241E-03  6.52966604E-01  3.22325519E-01 -8.52833689E-01 -8.09995501E-02
 -1.57499570E-02 -9.31441981E-01  5.04472620E-02  1.72874260E+00  8.84974550E-02
 -2.80153520E-01 -4.03380321E-02 -9.58643041E-01 -1.04366489E-01  1.99288933E-03
  1.54658706E-01 -4.44463142E-03 -9.68076824E-03  2.46783278E+00  2.47906545E+00
  3.73982657E-01  2.52991944E-01  1.00226647E-01 -9.89194738E-03  3.29618167E-01
  5.30713485E-02 -7.47610571E-02 -2.20784384E+00  2.60783623E+00  5.47513163E-01
 -2.98250530E-02  1.78955107E-02  6.79072507E-01  5.95169143E-02  5.88931633E-02
  1.35297303E-01 -1.55441502E+00 -5.51814095E-02  3.54275749E-01  2.52676388E-03
 -1.02357961E-01 -4.80279414E-01 -2.90710234E-01  3.04976142E-01  5.39647949E-02
  1.04235219E+00  3.63417437E-01 -1.38284759E-01 -2.09987411E-03 -1.33585679E-01
  2.20451292E-01 -4.87813003E-01  3.90907920E-01 -5.84567306E-01 -7.65566616E-02
  4.83231126E-01 -3.25506120E-01 -3.99547676E-02  3.50556344E-01  2.14528468E-01
  1.57682756E-01 -3.39861974E-01  4.87651095E-01  2.78857475E-01 -2.82085685E-01
 -8.80601145E-03  6.26062430E-02  1.64255175E-01  4.94487765E-03  7.30210745E-01
  4.15100406E-03 -1.22610325E-01 -6.16592112E-02 -6.69279107E-01 -1.27885314E-02
  8.37717474E-02  6.28319517E-03  4.75095330E-01  5.23081692E-01  2.12566434E-01
  1.92311590E-01 -5.15232658E-01 -3.74804913E-01  1.69435872E-01 -6.00484301E-02
 -1.46155981E-01 -4.85550378E-02  8.39493698E-02 -3.36498751E-01 -1.91138555E-01
  2.84778817E-02  6.71796640E-03  2.43785483E-02  1.38144328E-01 -4.28664819E-02
  6.48542793E-01  6.93548836E-01  7.18997756E-02  2.49478423E-03 -7.51471874E-01
  2.24410950E-02 -4.14348569E-02 -3.46944404E-01 -3.35895937E-01 -6.47560128E-01
 -1.60134604E-01  9.81620733E-01  5.05241214E-01  7.28145934E-01  2.23893007E-02
 -6.25012528E-02 -8.88654031E-03 -6.07068183E-02 -1.99615503E-01 -2.86266917E-01
  4.38784113E-02  1.19410009E-01  4.25329505E-02  9.03197975E-02 -4.96649404E-01
  2.77767166E-01 -1.40457511E-01  4.57467096E-01  1.62447812E+00 -4.51378382E-01
  1.48319781E-01 -4.05917699E-02  8.67573654E-02 -4.50736074E-01  1.33886818E-01
 -2.76288646E-02 -6.57421351E-01  1.29444504E+00 -1.44888269E-02 -2.07483402E-02
  7.90755114E-01  2.30470343E-01  1.74244166E-01 -1.49350400E-02 -2.87559688E-01
 -1.87236622E-01 -5.89953012E-02 -4.05657307E-01  4.43686305E-02 -3.22384631E-02
 -3.42150889E-01 -6.19381162E-01  7.91317817E-02 -1.07050084E+00 -1.55391026E-01
  1.38618047E+00 -1.70623452E-01 -4.89705031E-02  8.32977885E-02  3.23356751E-02
  4.72413528E-01 -3.94000108E-01  2.21278572E-01 -9.91585988E-01 -1.25080270E+00
  5.61237689E-01  4.88547937E-03 -2.88064740E-01  4.28269246E-01  4.70749826E-01
  1.86568009E-01  6.37971243E-01 -1.46740414E-01 -3.32395398E-01  2.94816624E-02
  2.01118289E-01  5.17256314E-01 -2.44342061E-01 -1.31601912E-01  5.72793241E-01
 -6.00818345E-01  9.13326284E-01  4.61256766E-01  2.45590099E-02  1.70442599E-01
 -4.87724364E-01 -3.08989274E-02  3.17609781E-01  1.43906326E-01  1.23452702E+00
  6.47900611E-02 -5.87898793E-01  1.37913052E-01 -7.27198973E-01  7.21733363E-01
 -1.05455831E-01  1.52628537E-01 -9.87541208E-01  3.88469397E-01  2.57812802E-02
  3.35999778E-02  4.00132337E-02  3.25714407E-02 -4.41627313E-01 -1.09225525E-01
 -1.78341090E-01 -4.55717525E-01  5.67357088E-01  1.65511040E-01 -2.44942158E-02
  1.35325681E-01 -1.58541805E-01 -5.57869032E-01  1.59257761E-01  5.35546068E-03
 -1.15775319E-02  5.79858127E-01 -2.55227364E-01  4.14151139E-01 -7.89434083E-01
 -2.34371760E-01  4.43744411E-01  3.88810294E-01 -7.35975980E-01 -8.69895101E-01
  1.37897978E+00 -4.29327274E-02 -2.04319400E-03 -6.50552649E-02 -6.31860503E-01
 -2.17316229E-01  1.00554788E+00  6.41304743E-01  1.27514850E+00  5.33191705E-01
  1.14171842E-02 -2.11770304E-01 -4.37178966E-01  2.41221180E-01  8.31040304E-02
  6.27684072E-03  1.96717546E+00 -5.03800931E-01 -3.26124001E-01 -6.33929715E-02
 -3.85633133E-01 -8.77945871E-01  1.55675081E+00 -3.21941003E-01 -6.87005439E-01
  3.07660355E-01 -9.14863949E-01  2.95022528E-03 -8.41319415E-04  6.31169444E-01
 -2.28146578E-01 -8.29305700E-02 -3.90451034E-01 -9.95639256E-01  3.85718735E-01
  8.38817065E-02 -1.37739292E-02 -1.33209988E-02  6.88559895E-01  8.05426233E-02
 -1.46160841E-01  3.42793244E-01 -1.03388568E+00 -3.05875510E-01  1.29007244E-01
  6.81229491E-01 -1.11794606E+00  1.16227533E-03  2.04476280E-01 -7.65297244E-01
  1.15108851E+00 -4.01197745E-02 -1.20234145E-01 -9.74981171E-03 -2.39303393E-02
 -3.43267385E-02  8.68935664E-02 -8.18616380E-02  8.51667831E-01  3.94306623E-02
  6.56341554E-01  4.34778842E-01 -7.19668774E-02  1.00062256E-01 -1.68820502E-01
  5.04627734E-02  9.02694713E-02  1.60432362E-01  1.56681261E+00 -5.65212976E-01
 -4.99427414E-01 -6.75509657E-01  1.96128620E-01  3.23042255E-01 -6.35190331E-02
 -8.55509028E-01 -4.62421006E-01 -7.91705891E-01  2.34679427E-01  3.51254596E-02
 -1.32158869E+00  1.24023590E-01  4.93588203E-02 -2.00013444E-02  2.02148137E+00
 -3.90239025E-01  7.52525717E-02  1.33479464E-01  1.33686019E-02 -1.15490098E+00
 -1.68460096E-01  1.09456786E-01  7.32369543E-02  1.66308903E+00  6.97342915E-01
 -5.16005148E-01 -2.61210135E-01  1.14764954E-01 -8.03861375E-01  1.81688661E-01
 -6.42066651E-01  5.18688013E-02 -8.10824870E-01 -1.88326227E-01 -4.69383008E-01
 -1.09576362E-02 -1.33622717E+00  8.29962072E-03  5.33213957E-03  7.55961243E-03
  3.94923392E+00  1.23748528E+00 -1.33820024E-01  4.48914536E-02  1.18713549E-02
  1.47827875E+00 -5.68891706E-02 -8.22715044E-02 -1.22464189E-02 -3.89570623E+00
  1.32531020E+00  8.50041374E-01  1.70260952E-01  8.29613238E-04 -2.67274522E-01
 -2.05999392E-01 -5.05184673E-01 -2.81323214E-02  1.80705190E-01  2.93987391E-01
  4.38249359E-01
Total SCF Density                          R   N=         351
  2.03260531E+00  1.12474716E-01  1.25792540E-01  2.45004120E-03  3.30446852E-03
  3.20426699E-01 -7.85265190E-04  4.47150400E-03  2.25665560E-04  3.18110103E-01
  4.51876539E-03 -6.86873338E-03 -2.04481852E-02  5.56158496E-03  2.33582257E-01
 -3.91714711E-01  2.36489703E-01 -5.60412501E-02 -3.32591758E-02 -7.36778219E-04
  6.83732070E-01 -1.19111018E-02 -4.38481428E-03  1.85448956E-01 -2.76965233E-02
 -1.30954045E-02 -2.64701453E-02  1.16499351E-01  1.23317772E-02 -6.44355969E-03
 -1.61633209E-02  2.28189464E-01 -1.00120272E-02 -4.96627237E-02 -3.14250329E-02
  1.67797963E-01  4.08053332E-03 -1.11084227E-02 -2.65498418E-02 -2.49273579E-02
  2.39083663E-01 -6.78420329E-04 -1.42611288E-02 -3.08727164E-02  2.49635080E-01
  2.39365828E-02 -3.49318316E-02 -8.62460142E-02 -2.15393178E-02 -2.30009378E-02
  2.03377205E-02  3.78600770E-03 -1.62666972E-02 -2.61552601E-02  2.03384809E+00
 -3.42103118E-02  2.86319806E-02  8.98418176E-02  2.35330514E-02  2.42737870E-02
  4.50414284E-02  3.61626349E-02  1.60574345E-02  2.65908414E-02  1.12983657E-01
  1.25009119E-01  7.78802823E-02 -8.10875344E-02 -2.16066000E-01 -6.83643357E-02
 -5.42991399E-04 -1.69860504E-01 -1.36772211E-01 -1.80337916E-02  2.08736966E-02
  4.01963964E-03 -1.03184427E-02  3.24291491E-01 -3.73919031E-03  1.10287288E-03
 -7.57422044E-03  9.44558569E-03  2.04291204E-02  9.12419072E-02  1.40314807E-02
  4.09574672E-03  3.94369227E-02 -1.72319970E-02  9.74589492E-03  1.64259443E-02
  3.15727952E-01  8.12130137E-03 -1.20868600E-02 -2.38003473E-02 -4.49670359E-02
  2.31136291E-01 -4.30406879E-03 -6.53254279E-03 -4.79552495E-02  2.39110268E-01
 -1.80267185E-03 -1.30369237E-04 -7.12753587E-03  5.19038643E-03  2.42521899E-01
  2.07435405E-02  3.63502043E-02  2.05949965E-01  7.11005891E-02  8.22426083E-02
 -1.07304880E-02  6.61363792E-02  5.54856104E-02  9.34035121E-02 -3.95040474E-01
  2.40785127E-01  3.98945767E-02  7.31194377E-02  1.56720910E-02  6.91900799E-01
 -1.78970120E-02 -2.46275633E-02 -1.09158011E-01 -4.36734867E-02  1.79933718E-02
 -2.53712447E-02 -6.89050560E-02 -1.82644896E-02  3.15205335E-02  4.46985811E-03
  1.15359686E-02  1.57696235E-01  3.20611226E-02  1.22951268E-02  5.19378453E-02
  8.57199831E-02 -1.39700193E-02  4.48152746E-03  3.07002726E-03 -3.94320061E-02
  3.36516931E-02  9.68012282E-02  2.37457444E-02 -3.37767754E-02  5.35858395E-02
  2.28134743E-02  7.69475462E-03  3.20236605E-03  2.65558353E-01  2.98736462E-02
  4.35584506E-02  2.51834539E-02  2.33779238E-01  7.59268263E-03 -1.22482119E-02
 -2.22841334E-02 -5.78968808E-02  2.36422298E-01  2.90522068E-03 -4.51542573E-03
 -5.69107425E-02  2.47980222E-01  5.69494294E-04  8.46856383E-03  3.77594359E-03
  3.14774312E-02  2.46798915E-01  3.88954790E-02  2.12831548E-02  5.38287516E-02
  2.54677562E-01 -6.70764659E-02  6.54846052E-02 -1.65242410E-01  1.38417174E-01
  2.16450730E-02  1.66029362E-01 -1.12901323E-01  1.00790208E-01  7.25172144E-03
  1.43434167E-02 -1.70623034E-02  2.90828831E-02 -2.99756605E-02  9.75783106E-05
 -5.98343687E-02  2.21962745E-02 -4.66551529E-02 -9.27235526E-03  1.93148870E-01
  5.76222520E-03  2.50046502E-02 -1.28243020E-01  1.29553387E-01  3.36875630E-03
  3.78666412E-02 -9.02066330E-02  9.74170354E-02 -1.33776422E-02  3.42748610E-02
 -2.91200261E-02  3.06967889E-02 -7.92366251E-02 -1.13421102E-02 -8.46640762E-02
  8.45569428E-03 -8.84924455E-02 -2.51411046E-02  1.46858558E-01  1.33306320E-01
 -6.20241098E-02  5.83995235E-02 -4.22241248E-02 -2.13246603E-01 -2.65968617E-02
  1.92850935E-01 -5.78822854E-03 -1.55463859E-01 -5.39814594E-03  7.14843246E-03
 -1.17556081E-02  3.11710420E-02  3.31043922E-02  3.38207399E-03 -5.67896883E-02
  3.53551692E-02  5.95420038E-02  1.47282181E-02 -3.76761906E-02 -6.73728952E-02
  1.93033178E-01  1.56935142E-02  1.35637832E-02 -3.37898159E-02 -2.00860387E-01
 -1.02958464E-02  7.74648127E-02  1.35260644E-04 -1.42446607E-01  1.44873253E-02
  6.77178448E-03 -1.25550400E-02  6.94978719E-02  7.33570447E-02  1.59483067E-02
 -2.82842751E-02  4.86608699E-02  8.96710842E-02  3.11292770E-02 -7.18650222E-02
 -8.72366209E-02  1.58038752E-01  1.53665448E-01  1.44139354E-02 -1.77869728E-02
 -5.33519677E-02 -1.39981273E-02 -2.29284140E-02 -4.10869830E-02 -5.05797451E-02
  9.46137674E-03 -6.77416664E-03 -7.92456005E-02  7.35937483E-02  1.81256455E-01
  7.28975585E-02 -4.96847715E-02  2.28288166E-01  1.01385919E-01  4.77062899E-02
 -3.37127404E-02  1.23222951E-04 -1.70121020E-02  1.89251729E-02  4.32466888E-02
  1.82794948E-01  2.31628297E-02 -1.81111929E-02 -6.06493756E-02 -2.93735888E-02
 -1.50621571E-02 -1.14799624E-02 -3.81415880E-02 -7.90158815E-03  2.27910861E-03
 -1.09906949E-02  3.35015831E-02  1.38400068E-01  1.29001435E-01 -2.98835334E-02
  1.17464934E-01  8.03556326E-02  1.02823597E-01 -1.27433814E-02 -1.02687640E-02
 -3.17414275E-02  3.56057771E-02  6.25592286E-02  1.31831957E-01  1.20873431E-01
  7.36303263E-03 -6.30959485E-03 -5.86758537E-03  7.82226444E-03  7.01854980E-03
 -8.99695732E-02 -2.81369967E-02  1.25600217E-02 -3.79976564E-03 -2.62045678E-02
  2.88027352E-02  4.26744466E-02 -2.27813129E-01  5.47966051E-03  5.19213377E-02
  8.23132358E-03 -1.97115896E-01 -9.97279288E-03  3.19311766E-02  6.30563454E-02
 -3.74497717E-02 -5.86815941E-02  4.14765666E-03 -6.16576934E-02  1.89714048E-01
  2.42338833E-02 -2.13267359E-02 -6.48670816E-02  2.70136751E-02  1.91503586E-03
 -1.23443528E-01 -5.56017490E-02  2.59151689E-02 -1.72281005E-02  6.29462556E-02
 -3.19166143E-02  3.45874577E-02 -2.89871497E-01  1.30026496E-02 -1.18513961E-01
 -8.73852297E-03 -2.50256647E-01 -1.32155498E-02  6.84168673E-02  1.12952401E-01
 -5.89654249E-02 -8.69195236E-02 -6.21061931E-02 -1.10661908E-01  2.13250009E-01
  2.91666917E-01
Mulliken Charges                           R   N=           6
 -3.83261989E-01 -4.04594008E-01  1.92913696E-01  1.95275521E-01  2.44980366E-01
  1.54686414E-01
ONIOM Charges                              I   N=          16
           0           0           0           0           0           0
           0           0           0           0           0           0
           0           0           0           0
ONIOM Multiplicities                       I   N=          16
           1           0           0           0           0           0
           0           0           0           0           0           0
           0           0           0           0
Atom Layers                                I   N=           6
           1           1           1           1           1           1
Atom Modifiers                             I   N=           6
           0           0           0           0           0           0
Force Field                                I                0
Int Atom Modified Types                    I   N=           6
           0           0           0           0           0           0
Link Atoms                                 I   N=           6
           0           0           0           0           0           0
Atom Modified MM Charges                   R   N=           6
  0.00000000E+00  0.00000000E+00  0.00000000E+00  0.00000000E+00  0.00000000E+00
  0.00000000E+00
Link Distances                             R   N=          24
  0.00000000E+00  0.00000000E+00  0.00000000E+00  0.00000000E+00  0.00000000E+00
  0.00000000E+00  0.00000000E+00  0.00000000E+00  0.00000000E+00  0.00000000E+00
  0.00000000E+00  0.00000000E+00  0.00000000E+00  0.00000000E+00  0.00000000E+00