 Entering Gaussian System, Link 0=/home/george/soft/gauss//g09/g09
 Initial command:
 /home/george/soft/gauss//g09/l1.exe "/home/george/soft/gauss/scr/Gau-15663.inp" -scrdir="/home/george/soft/gauss/scr/"
 Entering Link 1 = /home/george/soft/gauss//g09/l1.exe PID=     15667.
  
 Copyright (c) 1988,1990,1992,1993,1995,1998,2003,2009,2013,
            Gaussian, Inc.  All Rights Reserved.
  
 This is part of the Gaussian(R) 09 program.  It is based on
 the Gaussian(R) 03 system (copyright 2003, Gaussian, Inc.),
 the Gaussian(R) 98 system (copyright 1998, Gaussian, Inc.),
 the Gaussian(R) 94 system (copyright 1995, Gaussian, Inc.),
 the Gaussian 92(TM) system (copyright 1992, Gaussian, Inc.),
 the Gaussian 90(TM) system (copyright 1990, Gaussian, Inc.),
 the Gaussian 88(TM) system (copyright 1988, Gaussian, Inc.),
 the Gaussian 86(TM) system (copyright 1986, Carnegie Mellon
 University), and the Gaussian 82(TM) system (copyright 1983,
 Carnegie Mellon University). Gaussian is a federally registered
 trademark of Gaussian, Inc.
  
 This software contains proprietary and confidential information,
 including trade secrets, belonging to Gaussian, Inc.
  
 This software is provided under written license and may be
 used, copied, transmitted, or stored only in accord with that
 written license.
  
 The following legend is applicable only to US Government
 contracts under FAR:
  
                    RESTRICTED RIGHTS LEGEND
  
 Use, reproduction and disclosure by the US Government is
 subject to restrictions as set forth in subparagraphs (a)
 and (c) of the Commercial Computer Software - Restricted
 Rights clause in FAR 52.227-19.
  
 Gaussian, Inc.
 340 Quinnipiac St., Bldg. 40, Wallingford CT 06492
  
  
 ---------------------------------------------------------------
 Warning -- This program may not be used in any manner that
 competes with the business of Gaussian, Inc. or will provide
 assistance to any competitor of Gaussian, Inc.  The licensee
 of this program is prohibited from giving any competitor of
 Gaussian, Inc. access to this program.  By using this program,
 the user acknowledges that Gaussian, Inc. is engaged in the
 business of creating and licensing software in the field of
 computational chemistry and represents and warrants to the
 licensee that it is not a competitor of Gaussian, Inc. and that
 it will not use this program in any manner prohibited above.
 ---------------------------------------------------------------
  

 Cite this work as:
 Gaussian 09, Revision D.01,
 M. J. Frisch, G. W. Trucks, H. B. Schlegel, G. E. Scuseria, 
 M. A. Robb, J. R. Cheeseman, G. Scalmani, V. Barone, B. Mennucci, 
 G. A. Petersson, H. Nakatsuji, M. Caricato, X. Li, H. P. Hratchian, 
 A. F. Izmaylov, J. Bloino, G. Zheng, J. L. Sonnenberg, M. Hada, 
 M. Ehara, K. Toyota, R. Fukuda, J. Hasegawa, M. Ishida, T. Nakajima, 
 Y. Honda, O. Kitao, H. Nakai, T. Vreven, J. A. Montgomery, Jr., 
 J. E. Peralta, F. Ogliaro, M. Bearpark, J. J. Heyd, E. Brothers, 
 K. N. Kudin, V. N. Staroverov, T. Keith, R. Kobayashi, J. Normand, 
 K. Raghavachari, A. Rendell, J. C. Burant, S. S. Iyengar, J. Tomasi, 
 M. Cossi, N. Rega, J. M. Millam, M. Klene, J. E. Knox, J. B. Cross, 
 V. Bakken, C. Adamo, J. Jaramillo, R. Gomperts, R. E. Stratmann, 
 O. Yazyev, A. J. Austin, R. Cammi, C. Pomelli, J. W. Ochterski, 
 R. L. Martin, K. Morokuma, V. G. Zakrzewski, G. A. Voth, 
 P. Salvador, J. J. Dannenberg, S. Dapprich, A. D. Daniels, 
 O. Farkas, J. B. Foresman, J. V. Ortiz, J. Cioslowski, 
 and D. J. Fox, Gaussian, Inc., Wallingford CT, 2013.
 
 ******************************************
 Gaussian 09:  AM64L-G09RevD.01 24-Apr-2013
                11-Oct-2017 
 ******************************************
 %RWF=./tmp/1491325781427395173/rwf
 %Int=./tmp/1491325781427395173/int
 %D2E=./tmp/1491325781427395173/d2e
 %Scr=./tmp/1491325781427395173/skr
 %NoSave
 %chk=./tmp/1491325781427395173/chk
 %nproc=3
 Will use up to    3 processors via shared memory.
 %mem=1000mb
 ------------------------
 # B3lyp/3-21g nosym freq
 ------------------------
 1/10=4,30=1,38=1/1,3;
 2/12=2,15=1,17=6,18=5,40=1/2;
 3/5=5,11=2,16=1,25=1,30=1,71=2,74=-5,140=1/1,2,3;
 4//1;
 5/5=2,38=5,98=1/2;
 8/6=4,10=90,11=11/1;
 11/6=1,8=1,9=11,15=111,16=1,31=1/1,2,10;
 10/6=1,31=1/2;
 6/7=2,8=2,9=2,10=2,18=1,28=1/1;
 7/8=1,10=1,25=1,30=1/1,2,3,16;
 1/10=4,30=1/3;
 99//99;


 Symbolic Z-matrix:
 Charge =  0 Multiplicity = 1
 6                    -0.69767   0.1261    0.00787 
 6                     0.63686   0.40143   0.12905 
 1                    -1.58527   0.70364   0.18221 
 1                    -0.92713  -0.91208  -0.21816 
 1                     1.6406    0.38692  -0.25067 
 1                     0.93261  -0.70601   0.14969 
 

 GradGradGradGradGradGradGradGradGradGradGradGradGradGradGradGradGradGrad
 Berny optimization.
 Initialization pass.
 Trust Radius=3.00D-01 FncErr=1.00D-07 GrdErr=1.00D-07
 Number of steps in this run=      2 maximum allowed number of steps=      2.
 GradGradGradGradGradGradGradGradGradGradGradGradGradGradGradGradGradGrad

                          Input orientation:                          
 ---------------------------------------------------------------------
 Center     Atomic      Atomic             Coordinates (Angstroms)
 Number     Number       Type             X           Y           Z
 ---------------------------------------------------------------------
      1          6           0       -0.697670    0.126105    0.007869
      2          6           0        0.636858    0.401429    0.129048
      3          1           0       -1.585271    0.703640    0.182211
      4          1           0       -0.927128   -0.912082   -0.218158
      5          1           0        1.640604    0.386918   -0.250665
      6          1           0        0.932608   -0.706010    0.149695
 ---------------------------------------------------------------------
                    Distance matrix (angstroms):
                    1          2          3          4          5
     1  C    0.000000
     2  C    1.368010   0.000000
     3  H    1.073209   2.243215   0.000000
     4  H    1.087001   2.071694   1.789973   0.000000
     5  H    2.366936   1.073266   3.270163   2.877795   0.000000
     6  H    1.835847   1.146436   2.885807   1.906935   1.362365
                    6
     6  H    0.000000
 Symmetry turned off by external request.
 Stoichiometry    C2H4
 Framework group  C1[X(C2H4)]
 Deg. of freedom    12
 Full point group                 C1      NOp   1
 Rotational constants (GHZ):    171.3319214     27.8580098     24.4438988
 Standard basis: 3-21G (6D, 7F)
    26 basis functions,    42 primitive gaussians,    26 cartesian basis functions
     8 alpha electrons        8 beta electrons
       nuclear repulsion energy        33.0424008952 Hartrees.
 NAtoms=    6 NActive=    6 NUniq=    6 SFac= 1.00D+00 NAtFMM=   60 NAOKFM=F Big=F
 Integral buffers will be    131072 words long.
 Raffenetti 2 integral format.
 Two-electron integral symmetry is turned off.
 One-electron integrals computed using PRISM.
 NBasis=    26 RedAO= T EigKep=  1.41D-02  NBF=    26
 NBsUse=    26 1.00D-06 EigRej= -1.00D+00 NBFU=    26
 ExpMin= 1.83D-01 ExpMax= 1.72D+02 ExpMxC= 1.72D+02 IAcc=1 IRadAn=         1 AccDes= 0.00D+00
 Harris functional with IExCor=  402 and IRadAn=       1 diagonalized for initial guess.
 HarFok:  IExCor=  402 AccDes= 0.00D+00 IRadAn=         1 IDoV= 1 UseB2=F ITyADJ=14
 ICtDFT=  3500011 ScaDFX=  1.000000  1.000000  1.000000  1.000000
 FoFCou: FMM=F IPFlag=           0 FMFlag=      100000 FMFlg1=           0
         NFxFlg=           0 DoJE=T BraDBF=F KetDBF=T FulRan=T
         wScrn=  0.000000 ICntrl=     500 IOpCl=  0 I1Cent=   200000004 NGrid=           0
         NMat0=    1 NMatS0=      1 NMatT0=    0 NMatD0=    1 NMtDS0=    0 NMtDT0=    0
 Symmetry not used in FoFCou.
 Keep R1 ints in memory in canonical form, NReq=942464.
 Requested convergence on RMS density matrix=1.00D-08 within 128 cycles.
 Requested convergence on MAX density matrix=1.00D-06.
 Requested convergence on             energy=1.00D-06.
 No special actions if energy rises.
 Integral accuracy reduced to 1.0D-05 until final iterations.
 Initial convergence to 1.0D-05 achieved.  Increase integral accuracy.
 SCF Done:  E(RB3LYP) =  -78.0409770886     A.U. after   13 cycles
            NFock= 13  Conv=0.22D-08     -V/T= 2.0092
 DoSCS=F DFT=T ScalE2(SS,OS)=  1.000000  1.000000
 Range of M.O.s used for correlation:     1    26
 NBasis=    26 NAE=     8 NBE=     8 NFC=     0 NFV=     0
 NROrb=     26 NOA=     8 NOB=     8 NVA=    18 NVB=    18
 Symmetrizing basis deriv contribution to polar:
 IMax=3 JMax=2 DiffMx= 0.00D+00
 G2DrvN: will do     7 centers at a time, making    1 passes.
 Calling FoFCou, ICntrl=  3107 FMM=F I1Cent=   0 AccDes= 0.00D+00.
 End of G2Drv F.D. properties file   721 does not exist.
 End of G2Drv F.D. properties file   722 does not exist.
 End of G2Drv F.D. properties file   788 does not exist.
          IDoAtm=111111
          Differentiating once with respect to electric field.
                with respect to dipole field.
          Differentiating once with respect to nuclear coordinates.
 Keep R1 ints in memory in canonical form, NReq=921684.
          There are    21 degrees of freedom in the 1st order CPHF.  IDoFFX=6 NUNeed=     3.
     18 vectors produced by pass  0 Test12= 6.86D-16 4.76D-09 XBig12= 3.85D+01 3.71D+00.
 AX will form    18 AO Fock derivatives at one time.
     18 vectors produced by pass  1 Test12= 6.86D-16 4.76D-09 XBig12= 3.90D+00 5.23D-01.
     18 vectors produced by pass  2 Test12= 6.86D-16 4.76D-09 XBig12= 2.88D-02 4.18D-02.
     18 vectors produced by pass  3 Test12= 6.86D-16 4.76D-09 XBig12= 2.08D-05 1.30D-03.
     15 vectors produced by pass  4 Test12= 6.86D-16 4.76D-09 XBig12= 7.73D-09 3.23D-05.
      3 vectors produced by pass  5 Test12= 6.86D-16 4.76D-09 XBig12= 1.82D-12 3.90D-07.
 InvSVY:  IOpt=1 It=  1 EMax= 8.88D-16
 Solved reduced A of dimension    90 with    21 vectors.
 Isotropic polarizability for W=    0.000000       19.65 Bohr**3.
 End of Minotr F.D. properties file   721 does not exist.
 End of Minotr F.D. properties file   722 does not exist.
 End of Minotr F.D. properties file   788 does not exist.

 **********************************************************************

            Population analysis using the SCF density.

 **********************************************************************

 Alpha  occ. eigenvalues --  -10.14667 -10.13141  -0.77750  -0.61151  -0.46300
 Alpha  occ. eigenvalues --   -0.44116  -0.31195  -0.24112
 Alpha virt. eigenvalues --   -0.02518   0.09598   0.13292   0.18903   0.23896
 Alpha virt. eigenvalues --    0.36618   0.70083   0.73663   0.76832   0.79619
 Alpha virt. eigenvalues --    0.83734   0.91651   0.96420   1.04578   1.06790
 Alpha virt. eigenvalues --    1.14988   1.40601   1.68662
          Condensed to atoms (all electrons):
               1          2          3          4          5          6
     1  C    5.215609   0.526584   0.362041   0.402404  -0.024254  -0.097948
     2  C    0.526584   5.303514  -0.031386  -0.071370   0.386060   0.288533
     3  H    0.362041  -0.031386   0.516523  -0.048006  -0.000962   0.008556
     4  H    0.402404  -0.071370  -0.048006   0.557741   0.004814  -0.039180
     5  H   -0.024254   0.386060  -0.000962   0.004814   0.476518  -0.087538
     6  H   -0.097948   0.288533   0.008556  -0.039180  -0.087538   0.773403
 Mulliken charges:
               1
     1  C   -0.384435
     2  C   -0.401935
     3  H    0.193236
     4  H    0.193598
     5  H    0.245362
     6  H    0.154174
 Sum of Mulliken charges =   0.00000
 Mulliken charges with hydrogens summed into heavy atoms:
               1
     1  C    0.002399
     2  C   -0.002399
 APT charges:
               1
     1  C    0.133436
     2  C   -0.357222
     3  H    0.021052
     4  H    0.016349
     5  H    0.264952
     6  H   -0.078567
 Sum of APT charges =   0.00000
 APT charges with hydrogens summed into heavy atoms:
               1
     1  C    0.170837
     2  C   -0.170837
 Electronic spatial extent (au):  <R**2>=             85.8633
 Charge=              0.0000 electrons
 Dipole moment (field-independent basis, Debye):
    X=              0.2188    Y=             -0.9964    Z=             -0.4825  Tot=              1.1284
 Quadrupole moment (field-independent basis, Debye-Ang):
   XX=            -10.8277   YY=            -14.5670   ZZ=            -15.2040
   XY=             -0.6908   XZ=             -0.7627   YZ=              0.0512
 Traceless Quadrupole moment (field-independent basis, Debye-Ang):
   XX=              2.7052   YY=             -1.0341   ZZ=             -1.6711
   XY=             -0.6908   XZ=             -0.7627   YZ=              0.0512
 Octapole moment (field-independent basis, Debye-Ang**2):
  XXX=              2.6824  YYY=             -9.0920  ZZZ=             -2.5825  XYY=             -1.3309
  XXY=             -2.1800  XXZ=             -1.5795  XZZ=              0.2114  YZZ=             -2.9597
  YYZ=             -1.0926  XYZ=             -0.6850
 Hexadecapole moment (field-independent basis, Debye-Ang**3):
 XXXX=            -60.3527 YYYY=            -29.8147 ZZZZ=            -16.9456 XXXY=             -3.6202
 XXXZ=             -3.0878 YYYX=             -3.0983 YYYZ=             -1.0328 ZZZX=             -0.9987
 ZZZY=             -1.2221 XXYY=            -17.0342 XXZZ=            -14.8655 YYZZ=             -8.0198
 XXYZ=             -0.2573 YYXZ=             -0.5487 ZZXY=             -0.8500
 N-N= 3.304240089522D+01 E-N=-2.461350053722D+02  KE= 7.733032521594D+01
  Exact polarizability:  31.454  -0.642  19.693   1.734   1.822   7.813
 Approx polarizability:  51.420   1.694  28.763   5.318   3.898   9.964
 Calling FoFJK, ICntrl=    100127 FMM=F ISym2X=0 I1Cent= 0 IOpClX= 0 NMat=1 NMatS=1 NMatT=0.
 Full mass-weighted force constant matrix:
 Low frequencies --- -795.3941 -650.2905 -177.2997   -0.0010   -0.0008   -0.0008
 Low frequencies ---   81.1873  636.5136  968.4054
 ******    2 imaginary frequencies (negative Signs) ****** 
 Diagonal vibrational polarizability:
       10.0295940       8.5569615       8.2909944
 Harmonic frequencies (cm**-1), IR intensities (KM/Mole), Raman scattering
 activities (A**4/AMU), depolarization ratios for plane and unpolarized
 incident light, reduced masses (AMU), force constants (mDyne/A),
 and normal coordinates:
                      1                      2                      3
                      A                      A                      A
 Frequencies --   -644.7316              -377.0314               955.0230
 Red. masses --      1.2822                 1.1630                 1.2969
 Frc consts  --      0.3140                 0.0974                 0.6969
 IR Inten    --    127.1636                84.4652                54.9253
  Atom  AN      X      Y      Z        X      Y      Z        X      Y      Z
     1   6     0.01  -0.06  -0.01     0.00   0.01  -0.05     0.03  -0.05   0.14
     2   6     0.00   0.15   0.02     0.03  -0.02   0.10    -0.03   0.02  -0.02
     3   1     0.01  -0.11   0.23    -0.01  -0.01  -0.01     0.09   0.28  -0.78
     4   1     0.00  -0.01  -0.23     0.00   0.01  -0.10    -0.04   0.09  -0.46
     5   1     0.05  -0.89  -0.09    -0.33   0.06  -0.87    -0.07  -0.05  -0.12
     6   1    -0.23  -0.06  -0.01     0.09   0.03   0.30     0.00   0.00  -0.16
                      4                      5                      6
                      A                      A                      A
 Frequencies --   1069.4605              1131.4885              1443.1890
 Red. masses --      1.2612                 1.1046                 3.9553
 Frc consts  --      0.8499                 0.8332                 4.8537
 IR Inten    --      0.3960                 8.6750                 3.7841
  Atom  AN      X      Y      Z        X      Y      Z        X      Y      Z
     1   6    -0.05   0.08   0.07     0.02  -0.06   0.00     0.34   0.12   0.01
     2   6     0.05  -0.05  -0.08    -0.04   0.01  -0.06    -0.36  -0.08  -0.03
     3   1    -0.41  -0.43  -0.01     0.38   0.36   0.38     0.18  -0.23   0.14
     4   1     0.37   0.07  -0.47    -0.25   0.08  -0.39     0.61   0.06   0.06
     5   1     0.11   0.00   0.08     0.01   0.16   0.14    -0.44  -0.19   0.00
     6   1    -0.09   0.00   0.49     0.11   0.05   0.54    -0.10  -0.09   0.07
                      7                      8                      9
                      A                      A                      A
 Frequencies --   1617.1555              1679.9080              2532.3744
 Red. masses --      1.1368                 1.0414                 1.0607
 Frc consts  --      1.7517                 1.7315                 4.0078
 IR Inten    --      2.3048                 2.1915               132.5894
  Atom  AN      X      Y      Z        X      Y      Z        X      Y      Z
     1   6     0.10  -0.02   0.00    -0.03  -0.03   0.00    -0.01   0.00   0.00
     2   6     0.02   0.02  -0.01     0.03   0.01   0.00     0.01   0.07  -0.01
     3   1    -0.16  -0.35  -0.06     0.22   0.27   0.05    -0.02   0.00  -0.01
     4   1    -0.65   0.12   0.00     0.48  -0.14   0.02     0.05   0.04   0.02
     5   1    -0.03   0.23  -0.01    -0.02   0.21  -0.05    -0.13   0.16   0.03
     6   1    -0.57  -0.02   0.08    -0.76  -0.01  -0.02     0.08  -0.97   0.05
                     10                     11                     12
                      A                      A                      A
 Frequencies --   3138.4810              3301.4325              3347.1436
 Red. masses --      1.0706                 1.0947                 1.1015
 Frc consts  --      6.2134                 7.0300                 7.2708
 IR Inten    --     17.2687                22.2274                37.6407
  Atom  AN      X      Y      Z        X      Y      Z        X      Y      Z
     1   6     0.03   0.07   0.01    -0.06   0.06   0.01     0.02   0.00   0.00
     2   6     0.00   0.00   0.00    -0.01   0.00   0.00    -0.09   0.00   0.02
     3   1    -0.14   0.13   0.03     0.79  -0.55  -0.15    -0.12   0.09   0.02
     4   1    -0.18  -0.94  -0.19    -0.06  -0.15  -0.03     0.00  -0.01   0.01
     5   1    -0.04   0.00   0.02     0.14   0.01  -0.05     0.91   0.09  -0.33
     6   1     0.01  -0.04  -0.01     0.00  -0.04   0.01    -0.02  -0.13   0.02

 -------------------
 - Thermochemistry -
 -------------------
 Temperature   298.150 Kelvin.  Pressure   1.00000 Atm.
 Atom     1 has atomic number  6 and mass  12.00000
 Atom     2 has atomic number  6 and mass  12.00000
 Atom     3 has atomic number  1 and mass   1.00783
 Atom     4 has atomic number  1 and mass   1.00783
 Atom     5 has atomic number  1 and mass   1.00783
 Atom     6 has atomic number  1 and mass   1.00783
 Molecular mass:    28.03130 amu.
 Principal axes and moments of inertia in atomic units:
                           1         2         3
     Eigenvalues --    10.53360  64.78357  73.83197
           X            0.99166  -0.12765  -0.01760
           Y            0.12355   0.98073  -0.15136
           Z            0.03658   0.14792   0.98832
 This molecule is an asymmetric top.
 Rotational symmetry number  1.
 Rotational temperatures (Kelvin)      8.22263     1.33697     1.17312
 Rotational constants (GHZ):         171.33192    27.85801    24.44390
    2 imaginary frequencies ignored.
 Zero-point vibrational energy     120916.5 (Joules/Mol)
                                   28.89973 (Kcal/Mol)
 Vibrational temperatures:   1374.06  1538.71  1627.96  2076.42  2326.72
          (Kelvin)           2417.01  3643.52  4515.57  4750.02  4815.79
 
 Zero-point correction=                           0.046055 (Hartree/Particle)
 Thermal correction to Energy=                    0.048993
 Thermal correction to Enthalpy=                  0.049937
 Thermal correction to Gibbs Free Energy=         0.023922
 Sum of electronic and zero-point Energies=            -77.994922
 Sum of electronic and thermal Energies=               -77.991984
 Sum of electronic and thermal Enthalpies=             -77.991040
 Sum of electronic and thermal Free Energies=          -78.017055
 
                     E (Thermal)             CV                S
                      KCal/Mol        Cal/Mol-Kelvin    Cal/Mol-Kelvin
 Total                   30.743              7.134             54.753
 Electronic               0.000              0.000              0.000
 Translational            0.889              2.981             35.927
 Rotational               0.889              2.981             18.561
 Vibrational             28.966              1.172              0.265
                       Q            Log10(Q)             Ln(Q)
 Total Bot       0.992442D-11        -11.003295        -25.336023
 Total V=0       0.151471D+11         10.180330         23.441076
 Vib (Bot)       0.669569D-21        -21.174204        -48.755407
 Vib (V=0)       0.102193D+01          0.009420          0.021691
 Electronic      0.100000D+01          0.000000          0.000000
 Translational   0.583338D+07          6.765920         15.579107
 Rotational      0.254091D+04          3.404989          7.840278
 -------------------------------------------------------------------
 Center     Atomic                   Forces (Hartrees/Bohr)
 Number     Number              X              Y              Z
 -------------------------------------------------------------------
      1        6           0.013815773    0.005995542    0.002670793
      2        6          -0.014982112   -0.085817768   -0.013739313
      3        1           0.000106228    0.022101126   -0.007999860
      4        1          -0.010350855   -0.002252754    0.013236770
      5        1           0.013659421    0.067793523    0.002115983
      6        1          -0.002248456   -0.007819668    0.003715627
 -------------------------------------------------------------------
 Cartesian Forces:  Max     0.085817768 RMS     0.027607165

 GradGradGradGradGradGradGradGradGradGradGradGradGradGradGradGradGradGrad
 Berny optimization.
 Search for a local minimum.
 Step number   1 out of a maximum of    2
 All quantities printed in internal units (Hartrees-Bohrs-Radians)
 Second derivative matrix not updated -- analytic derivatives used.
 The second derivative matrix:
                          X1        Y1        Z1        X2        Y2
           X1           0.78231
           Y1          -0.03095   0.55754
           Z1          -0.01688   0.09036   0.13030
           X2          -0.43564  -0.10298  -0.01120   0.84913
           Y2          -0.06554  -0.04625   0.00430   0.08231   0.16441
           Z2          -0.01180   0.00259  -0.04175  -0.09461  -0.01898
           X3          -0.25406   0.14099   0.03761  -0.01352   0.01081
           Y3           0.13184  -0.15521  -0.03283  -0.00369   0.01076
           Z3           0.04931  -0.02875  -0.04498  -0.01308  -0.01340
           X4          -0.05365  -0.03806  -0.01241  -0.03083  -0.02436
           Y4          -0.04680  -0.31108  -0.05500  -0.00122  -0.00702
           Z4          -0.00793  -0.05711  -0.04782  -0.00457   0.01111
           X5           0.00539  -0.00406   0.00369  -0.33991  -0.01091
           Y5           0.00771  -0.02690  -0.00455  -0.00960   0.05656
           Z5          -0.01820  -0.00542  -0.00342   0.13602   0.01358
           X6          -0.04434   0.03506  -0.00080  -0.02922   0.00769
           Y6           0.00374  -0.01809  -0.00229   0.03518  -0.17845
           Z6           0.00550  -0.00168   0.00767  -0.01257   0.00339
                          Z2        X3        Y3        Z3        X4
           Z2           0.13493
           X3           0.00189   0.26819
           Y3           0.00311  -0.15269   0.15893
           Z3          -0.00389  -0.04058   0.03693   0.02753
           X4          -0.00119   0.00526   0.02518   0.00473   0.09014
           Y4          -0.00275  -0.00434  -0.01833  -0.00355   0.05118
           Z4           0.01496   0.00033  -0.00418   0.00712   0.01299
           X5           0.10917  -0.00046  -0.00053  -0.00074  -0.00236
           Y5           0.01267   0.00329   0.00111   0.00441  -0.00615
           Z5          -0.05904  -0.00093  -0.00002  -0.00203  -0.00178
           X6          -0.00346  -0.00541  -0.00011   0.00036  -0.00856
           Y6           0.00335   0.00193   0.00275   0.00437  -0.00779
           Z6          -0.04519   0.00168  -0.00300   0.01625  -0.00233
                          Y4        Z4        X5        Y5        Z5
           Y4           0.32700
           Z4           0.05853   0.03249
           X5          -0.00085   0.00247   0.34058
           Y5           0.00056  -0.00386   0.03281   0.00994
           Z5          -0.00358   0.00803  -0.12302  -0.01615   0.04129
           X6           0.00202  -0.00328  -0.00323  -0.02806   0.00791
           Y6           0.00888  -0.00448  -0.01646  -0.04127   0.01159
           Z6           0.00636  -0.01478   0.00844   0.00747   0.01517
                          X6        Y6        Z6
           X6           0.09077
           Y6          -0.01660   0.22619
           Z6          -0.00073  -0.01254   0.02089
 ITU=  0
     Eigenvalues ---   -0.02917   0.00538   0.06836   0.08023   0.10980
     Eigenvalues ---    0.13510   0.14428   0.29261   0.36450   0.59229
     Eigenvalues ---    0.80607   1.37704
 Eigenvalue     1 is  -2.92D-02 should be greater than     0.000000 Eigenvector:
                          Y5        Y2        Z4        Y3        Z3
   1                    0.77069  -0.41596   0.24197   0.19475  -0.18616
                          Y6        Z5        X6        X4        Z2
   1                   -0.15262   0.15175   0.14563  -0.10780  -0.09024
 Quadratic step=4.080D+00 exceeds max=3.000D-01 adjusted using Lamda=-3.167D-01.
 Angle between NR and scaled steps=  27.02 degrees.
 Angle between quadratic step and forces=  23.32 degrees.
 Linear search not attempted -- first point.
 TrRot= -0.001371 -0.028730 -0.005744  2.167120 -0.003935 -2.175735
 Variable       Old X    -DE/DX   Delta X   Delta X   Delta X     New X
                                 (Linear)    (Quad)   (Total)
    X1       -1.31840   0.01382   0.00000  -0.00193  -0.00090  -1.31931
    Y1        0.23830   0.00600   0.00000   0.02815   0.01071   0.24901
    Z1        0.01487   0.00267   0.00000   0.00792   0.00600   0.02087
    X2        1.20349  -0.01498   0.00000  -0.00267   0.00166   1.20514
    Y2        0.75859  -0.08582   0.00000  -0.14720  -0.18699   0.57160
    Z2        0.24387  -0.01374   0.00000  -0.03133  -0.03778   0.20609
    X3       -2.99573   0.00011   0.00000   0.00047   0.01185  -2.98388
    Y3        1.32969   0.02210   0.00000   0.05632   0.05231   1.38199
    Z3        0.34433  -0.00800   0.00000  -0.03276  -0.02732   0.31701
    X4       -1.75202  -0.01035   0.00000  -0.01548  -0.03236  -1.78438
    Y4       -1.72358  -0.00225   0.00000   0.00924  -0.00301  -1.72660
    Z4       -0.41226   0.01324   0.00000   0.04711   0.03977  -0.37249
    X5        3.10029   0.01366   0.00000   0.01229   0.01818   3.11847
    Y5        0.73117   0.06779   0.00000   0.24137   0.18727   0.91844
    Z5       -0.47369   0.00212   0.00000   0.02212   0.01256  -0.46113
    X6        1.76237  -0.00225   0.00000   0.01398   0.00158   1.76395
    Y6       -1.33417  -0.00782   0.00000  -0.01532  -0.06028  -1.39444
    Z6        0.28288   0.00372   0.00000   0.02086   0.00677   0.28965
         Item               Value     Threshold  Converged?
 Maximum Force            0.085818     0.000450     NO 
 RMS     Force            0.027607     0.000300     NO 
 Maximum Displacement     0.187266     0.001800     NO 
 RMS     Displacement     0.067514     0.001200     NO 
 Predicted change in Energy=-3.279649D-02
 GradGradGradGradGradGradGradGradGradGradGradGradGradGradGradGradGradGrad

 1\1\GINC-GEORGE-DELL\Freq\RB3LYP\3-21G\C2H4\GEORGE\11-Oct-2017\0\\# B3
 lyp/3-21g nosym freq\\\0,1\C,-0.6976696673,0.1261046239,0.0078690793\C
 ,0.6368575725,0.4014288264,0.1290480346\H,-1.5852711905,0.7036396698,0
 .1822105132\H,-0.9271283317,-0.9120817504,-0.2181584623\H,1.6406038299
 ,0.3869184299,-0.2506653441\H,0.9326076829,-0.7060098864,0.149694529\\
 Version=AM64L-G09RevD.01\HF=-78.0409771\RMSD=2.207e-09\RMSF=2.761e-02\
 ZeroPoint=0.0460547\Thermal=0.0489927\Dipole=0.0860836,-0.3919985,-0.1
 898178\DipoleDeriv=0.3418681,-0.0988791,-0.0186282,-0.1092755,0.296376
 4,0.1141274,0.1390699,0.136676,-0.2379373,-0.4455176,-0.0723048,0.0419
 312,-0.0296622,-0.2732441,-0.1079958,-0.2056358,-0.0967731,-0.3529039,
 -0.0650823,0.0997164,0.0204885,0.0699235,0.0108601,-0.0433674,-0.00134
 72,-0.0690293,0.1173784,-0.01809,0.0133744,-0.0208727,-0.0720724,-0.09
 28005,-0.0490234,-0.0228269,-0.0078131,0.1599388,0.2180208,-0.0196741,
 0.0115987,0.0054888,0.3625086,0.0432165,0.1390322,0.0389353,0.2143265,
 -0.031199,0.0777671,-0.0345174,0.1355978,-0.3037005,0.0430427,-0.04829
 22,-0.0019958,0.0991975\Polar=31.4543277,-0.6419655,19.6930159,1.73427
 39,1.8222198,7.8128482\PG=C01 [X(C2H4)]\NImag=2\\0.78231085,-0.0309463
 8,0.55753682,-0.01688119,0.09035929,0.13030163,-0.43564180,-0.10298127
 ,-0.01119504,0.84912534,-0.06554350,-0.04624899,0.00430267,0.08231144,
 0.16441021,-0.01179962,0.00259358,-0.04175225,-0.09460867,-0.01897586,
 0.13492599,-0.25406095,0.14099403,0.03760670,-0.01351994,0.01081024,0.
 00188669,0.26819438,0.13183884,-0.15521421,-0.03282859,-0.00369061,0.0
 1075551,0.00310598,-0.15268600,0.15892992,0.04930919,-0.02874599,-0.04
 497993,-0.01307508,-0.01340131,-0.00389262,-0.04058244,0.03692746,0.02
 753361,-0.05365384,-0.03806147,-0.01241363,-0.03083020,-0.02435902,-0.
 00119381,0.00526303,0.02517805,0.00472900,0.09014114,-0.04680029,-0.31
 108147,-0.05500072,-0.00121697,-0.00702459,-0.00274536,-0.00433744,-0.
 01833260,-0.00355397,0.05117755,0.32699781,-0.00793249,-0.05711214,-0.
 04781914,-0.00457100,0.01110683,0.01495814,0.00033140,-0.00418242,0.00
 711912,0.01298966,0.05852608,0.03249376,0.00538668,-0.00406417,0.00368
 515,-0.33991084,-0.01090903,0.10917132,-0.00046357,-0.00053264,-0.0007
 4473,-0.00236094,-0.00084609,0.00246595,0.34057884,0.00771030,-0.02689
 809,-0.00454703,-0.00959948,0.05655996,0.01267442,0.00328642,0.0011143
 8,0.00440663,-0.00614673,0.00055883,-0.00385987,0.03281282,0.00993742,
 -0.01819658,-0.00541563,-0.00341980,0.13602246,0.01357563,-0.05904491,
 -0.00092728,-0.00002204,-0.00202703,-0.00178410,-0.00358328,0.00803070
 ,-0.12302084,-0.01614801,0.04129357,-0.04434094,0.03505927,-0.00080198
 ,-0.02922256,0.00768986,-0.00345590,-0.00541294,-0.00010765,0.00036406
 ,-0.00855919,0.00202324,-0.00328352,-0.00323017,-0.02806333,0.00790634
 ,0.09076580,0.00374102,-0.01809405,-0.00228563,0.03517689,-0.17845209,
 0.00334724,0.00193274,0.00274700,0.00436718,-0.00778838,0.00888202,-0.
 00447847,-0.01646088,-0.04127251,0.01159333,-0.01660139,0.22618963,0.0
 0550069,-0.00167911,0.00766949,-0.01257266,0.00339204,-0.04519435,0.00
 168493,-0.00300039,0.01624685,-0.00232711,0.00635725,-0.01478258,0.008
 44315,0.00747386,0.01516748,-0.00072900,-0.01254365,0.02089311\\-0.013
 81577,-0.00599554,-0.00267079,0.01498211,0.08581777,0.01373931,-0.0001
 0623,-0.02210113,0.00799986,0.01035085,0.00225275,-0.01323677,-0.01365
 942,-0.06779352,-0.00211598,0.00224846,0.00781967,-0.00371563\\\@


 If your ship doesn't come in, swim out to it!
                          -- Jonathan Winters
 Job cpu time:       0 days  0 hours  0 minutes 34.5 seconds.
 File lengths (MBytes):  RWF=      5 Int=      0 D2E=      0 Chk=      1 Scr=      5
 Normal termination of Gaussian 09 at Wed Oct 11 07:01:37 2017.
