                                                                        
Freq      RB3LYP                                                      3-21G               
Number of atoms                            I               12
Info1-9                                    I   N=           9
          25          25           0           0           0         100
           6          18        -502
Charge                                     I                0
Multiplicity                               I                1
Number of electrons                        I               44
Number of alpha electrons                  I               22
Number of beta electrons                   I               22
Number of basis functions                  I               66
Number of independent functions            I               66
Number of point charges in /Mol/           I                0
Number of translation vectors              I                0
Atomic numbers                             I   N=          12
           6           7           7           6           6           1
           1           6           1           1           1           1
Nuclear charges                            R   N=          12
  6.00000000E+00  7.00000000E+00  7.00000000E+00  6.00000000E+00  6.00000000E+00
  1.00000000E+00  1.00000000E+00  6.00000000E+00  1.00000000E+00  1.00000000E+00
  1.00000000E+00  1.00000000E+00
Current cartesian coordinates              R   N=          36
 -4.10967019E-02  1.56849977E+00  1.21124431E-01  2.19135774E-01  1.62491222E+00
  2.86596121E+00  2.17428765E+00  7.40725052E-01  3.97623827E+00  4.13211886E+00
 -4.63651277E-01  2.50375302E+00 -1.55096791E+00 -2.34363308E-02 -1.10927699E+00
 -2.53415732E+00 -1.53210676E+00 -1.31927393E-01 -1.85942790E+00  1.58023315E-01
 -3.12535422E+00  6.18458580E+00 -1.25826684E+00  3.72901483E+00  6.32207929E+00
 -9.87051171E-01  5.75568710E+00  7.73824599E+00 -2.17469661E+00  2.76076714E+00
  3.86262313E+00 -6.99642079E-01  4.82115765E-01  9.05349950E-01  3.12889569E+00
 -8.27767829E-01
Force Field                                I                0
Int Atom Types                             I   N=          12
           0           0           0           0           0           0
           0           0           0           0           0           0
MM charges                                 R   N=          12
  0.00000000E+00  0.00000000E+00  0.00000000E+00  0.00000000E+00  0.00000000E+00
  0.00000000E+00  0.00000000E+00  0.00000000E+00  0.00000000E+00  0.00000000E+00
  0.00000000E+00  0.00000000E+00
Integer atomic weights                     I   N=          12
          12          14          14          12          12           1
           1          12           1           1           1           1
Real atomic weights                        R   N=          12
  1.20000000E+01  1.40030740E+01  1.40030740E+01  1.20000000E+01  1.20000000E+01
  1.00782504E+00  1.00782504E+00  1.20000000E+01  1.00782504E+00  1.00782504E+00
  1.00782504E+00  1.00782504E+00
Atom fragment info                         I   N=          12
           0           0           0           0           0           0
           0           0           0           0           0           0
Atom residue num                           I   N=          12
           0           0           0           0           0           0
           0           0           0           0           0           0
Nuclear spins                              I   N=          12
           0           2           2           0           0           1
           1           0           1           1           1           1
Nuclear ZEff                               R   N=          12
 -3.60000000E+00 -4.55000000E+00 -4.55000000E+00 -3.60000000E+00 -3.60000000E+00
 -1.00000000E+00 -1.00000000E+00 -3.60000000E+00 -1.00000000E+00 -1.00000000E+00
 -1.00000000E+00 -1.00000000E+00
Nuclear ZNuc                               R   N=          12
  6.00000000E+00  7.00000000E+00  7.00000000E+00  6.00000000E+00  6.00000000E+00
  1.00000000E+00  1.00000000E+00  6.00000000E+00  1.00000000E+00  1.00000000E+00
  1.00000000E+00  1.00000000E+00
Nuclear QMom                               R   N=          12
  0.00000000E+00  2.04400000E+00  2.04400000E+00  0.00000000E+00  0.00000000E+00
  0.00000000E+00  0.00000000E+00  0.00000000E+00  0.00000000E+00  0.00000000E+00
  0.00000000E+00  0.00000000E+00
Nuclear GFac                               R   N=          12
  0.00000000E+00  4.03761000E-01  4.03761000E-01  0.00000000E+00  0.00000000E+00
  2.79284600E+00  2.79284600E+00  0.00000000E+00  2.79284600E+00  2.79284600E+00
  2.79284600E+00  2.79284600E+00
MicOpt                                     I   N=          12
          -1          -1          -1          -1          -1          -1
          -1          -1          -1          -1          -1          -1
Number of contracted shells                I               30
Number of primitive shells                 I               54
Pure/Cartesian d shells                    I                1
Pure/Cartesian f shells                    I                0
Highest angular momentum                   I                1
Largest degree of contraction              I                3
Shell types                                I   N=          30
           0          -1          -1           0          -1          -1
           0          -1          -1           0          -1          -1
           0          -1          -1           0           0           0
           0           0          -1          -1           0           0
           0           0           0           0           0           0
Number of primitives per shell             I   N=          30
           3           2           1           3           2           1
           3           2           1           3           2           1
           3           2           1           2           1           2
           1           3           2           1           2           1
           2           1           2           1           2           1
Shell to atom map                          I   N=          30
           1           1           1           2           2           2
           3           3           3           4           4           4
           5           5           5           6           6           7
           7           8           8           8           9           9
          10          10          11          11          12          12
Primitive exponents                        R   N=          54
  1.72256000E+02  2.59109000E+01  5.53335000E+00  3.66498000E+00  7.70545000E-01
  1.95857000E-01  2.42766000E+02  3.64851000E+01  7.81449000E+00  5.42522000E+00
  1.14915000E+00  2.83205000E-01  2.42766000E+02  3.64851000E+01  7.81449000E+00
  5.42522000E+00  1.14915000E+00  2.83205000E-01  1.72256000E+02  2.59109000E+01
  5.53335000E+00  3.66498000E+00  7.70545000E-01  1.95857000E-01  1.72256000E+02
  2.59109000E+01  5.53335000E+00  3.66498000E+00  7.70545000E-01  1.95857000E-01
  5.44717800E+00  8.24547240E-01  1.83191580E-01  5.44717800E+00  8.24547240E-01
  1.83191580E-01  1.72256000E+02  2.59109000E+01  5.53335000E+00  3.66498000E+00
  7.70545000E-01  1.95857000E-01  5.44717800E+00  8.24547240E-01  1.83191580E-01
  5.44717800E+00  8.24547240E-01  1.83191580E-01  5.44717800E+00  8.24547240E-01
  1.83191580E-01  5.44717800E+00  8.24547240E-01  1.83191580E-01
Contraction coefficients                   R   N=          54
  6.17669074E-02  3.58794043E-01  7.00713084E-01 -3.95895162E-01  1.21583436E+00
  1.00000000E+00  5.98657005E-02  3.52955003E-01  7.06513006E-01 -4.13300077E-01
  1.22441727E+00  1.00000000E+00  5.98657005E-02  3.52955003E-01  7.06513006E-01
 -4.13300077E-01  1.22441727E+00  1.00000000E+00  6.17669074E-02  3.58794043E-01
  7.00713084E-01 -3.95895162E-01  1.21583436E+00  1.00000000E+00  6.17669074E-02
  3.58794043E-01  7.00713084E-01 -3.95895162E-01  1.21583436E+00  1.00000000E+00
  1.56284979E-01  9.04690877E-01  1.00000000E+00  1.56284979E-01  9.04690877E-01
  1.00000000E+00  6.17669074E-02  3.58794043E-01  7.00713084E-01 -3.95895162E-01
  1.21583436E+00  1.00000000E+00  1.56284979E-01  9.04690877E-01  1.00000000E+00
  1.56284979E-01  9.04690877E-01  1.00000000E+00  1.56284979E-01  9.04690877E-01
  1.00000000E+00  1.56284979E-01  9.04690877E-01  1.00000000E+00
P(S=P) Contraction coefficients            R   N=          54
  0.00000000E+00  0.00000000E+00  0.00000000E+00  2.36459947E-01  8.60618806E-01
  1.00000000E+00  0.00000000E+00  0.00000000E+00  0.00000000E+00  2.37972016E-01
  8.58953059E-01  1.00000000E+00  0.00000000E+00  0.00000000E+00  0.00000000E+00
  2.37972016E-01  8.58953059E-01  1.00000000E+00  0.00000000E+00  0.00000000E+00
  0.00000000E+00  2.36459947E-01  8.60618806E-01  1.00000000E+00  0.00000000E+00
  0.00000000E+00  0.00000000E+00  2.36459947E-01  8.60618806E-01  1.00000000E+00
  0.00000000E+00  0.00000000E+00  0.00000000E+00  0.00000000E+00  0.00000000E+00
  0.00000000E+00  0.00000000E+00  0.00000000E+00  0.00000000E+00  2.36459947E-01
  8.60618806E-01  1.00000000E+00  0.00000000E+00  0.00000000E+00  0.00000000E+00
  0.00000000E+00  0.00000000E+00  0.00000000E+00  0.00000000E+00  0.00000000E+00
  0.00000000E+00  0.00000000E+00  0.00000000E+00  0.00000000E+00
Coordinates of each shell                  R   N=          90
 -4.10967019E-02  1.56849977E+00  1.21124431E-01 -4.10967019E-02  1.56849977E+00
  1.21124431E-01 -4.10967019E-02  1.56849977E+00  1.21124431E-01  2.19135774E-01
  1.62491222E+00  2.86596121E+00  2.19135774E-01  1.62491222E+00  2.86596121E+00
  2.19135774E-01  1.62491222E+00  2.86596121E+00  2.17428765E+00  7.40725052E-01
  3.97623827E+00  2.17428765E+00  7.40725052E-01  3.97623827E+00  2.17428765E+00
  7.40725052E-01  3.97623827E+00  4.13211886E+00 -4.63651277E-01  2.50375302E+00
  4.13211886E+00 -4.63651277E-01  2.50375302E+00  4.13211886E+00 -4.63651277E-01
  2.50375302E+00 -1.55096791E+00 -2.34363308E-02 -1.10927699E+00 -1.55096791E+00
 -2.34363308E-02 -1.10927699E+00 -1.55096791E+00 -2.34363308E-02 -1.10927699E+00
 -2.53415732E+00 -1.53210676E+00 -1.31927393E-01 -2.53415732E+00 -1.53210676E+00
 -1.31927393E-01 -1.85942790E+00  1.58023315E-01 -3.12535422E+00 -1.85942790E+00
  1.58023315E-01 -3.12535422E+00  6.18458580E+00 -1.25826684E+00  3.72901483E+00
  6.18458580E+00 -1.25826684E+00  3.72901483E+00  6.18458580E+00 -1.25826684E+00
  3.72901483E+00  6.32207929E+00 -9.87051171E-01  5.75568710E+00  6.32207929E+00
 -9.87051171E-01  5.75568710E+00  7.73824599E+00 -2.17469661E+00  2.76076714E+00
  7.73824599E+00 -2.17469661E+00  2.76076714E+00  3.86262313E+00 -6.99642079E-01
  4.82115765E-01  3.86262313E+00 -6.99642079E-01  4.82115765E-01  9.05349950E-01
  3.12889569E+00 -8.27767829E-01  9.05349950E-01  3.12889569E+00 -8.27767829E-01
Constraint Structure                       R   N=          36
 -4.10967019E-02  1.56849977E+00  1.21124431E-01  2.19135774E-01  1.62491222E+00
  2.86596121E+00  2.17428765E+00  7.40725052E-01  3.97623827E+00  4.13211886E+00
 -4.63651277E-01  2.50375302E+00 -1.55096791E+00 -2.34363308E-02 -1.10927699E+00
 -2.53415732E+00 -1.53210676E+00 -1.31927393E-01 -1.85942790E+00  1.58023315E-01
 -3.12535422E+00  6.18458580E+00 -1.25826684E+00  3.72901483E+00  6.32207929E+00
 -9.87051171E-01  5.75568710E+00  7.73824599E+00 -2.17469661E+00  2.76076714E+00
  3.86262313E+00 -6.99642079E-01  4.82115765E-01  9.05349950E-01  3.12889569E+00
 -8.27767829E-01
Num ILSW                                   I              100
ILSW                                       I   N=         100
           0           1           0           0           2           0
           0           0           0           0         402          -1
           0           0           0           0           2           0
           0           0           1           0           1           0
           1           1           0           0           0           0
           0           0      100000           0          -1           0
           0           0           0           0           0           0
           0           0           0           1           0           0
           0           0           1           0           0           0
           0           0           4          41           0           0
           0           0           5           0           0           0
           0           0           0           0           0           0
           0           0           0           0           0           0
           0           0           0           0           0           0
           0           0           0           0           0           0
           0           0           0           0           0           0
           0           0           0           0
Num RLSW                                   I               41
RLSW                                       R   N=          41
  8.00000000E-01  7.20000000E-01  1.00000000E+00  8.10000000E-01  2.00000000E-01
  0.00000000E+00  0.00000000E+00  1.00000000E+00  0.00000000E+00  0.00000000E+00
  0.00000000E+00  0.00000000E+00  1.00000000E+00  0.00000000E+00  0.00000000E+00
  0.00000000E+00  0.00000000E+00  1.00000000E+00  0.00000000E+00  0.00000000E+00
  0.00000000E+00  0.00000000E+00  1.00000000E+00  0.00000000E+00  0.00000000E+00
  0.00000000E+00  0.00000000E+00  1.00000000E+00  0.00000000E+00  0.00000000E+00
  0.00000000E+00  0.00000000E+00  1.00000000E+00  0.00000000E+00  0.00000000E+00
  0.00000000E+00  0.00000000E+00  0.00000000E+00  1.00000000E+00  1.00000000E+00
  0.00000000E+00
MxBond                                     I                3
NBond                                      I   N=          12
           3           2           2           3           3           1
           1           3           1           1           1           1
IBond                                      I   N=          36
           2           5          12           1           3           0
           2           4           0           3           8          11
           1           6           7           5           0           0
           5           0           0           4           9          10
           8           0           0           8           0           0
           4           0           0           1           0           0
RBond                                      R   N=          36
  1.00000000E+00  2.00000000E+00  1.00000000E+00  1.00000000E+00  2.00000000E+00
  0.00000000E+00  2.00000000E+00  1.00000000E+00  0.00000000E+00  1.00000000E+00
  2.00000000E+00  1.00000000E+00  2.00000000E+00  1.00000000E+00  1.00000000E+00
  1.00000000E+00  0.00000000E+00  0.00000000E+00  1.00000000E+00  0.00000000E+00
  0.00000000E+00  2.00000000E+00  1.00000000E+00  1.00000000E+00  1.00000000E+00
  0.00000000E+00  0.00000000E+00  1.00000000E+00  0.00000000E+00  0.00000000E+00
  1.00000000E+00  0.00000000E+00  0.00000000E+00  1.00000000E+00  0.00000000E+00
  0.00000000E+00
Virial Ratio                               R      2.008650859173260E+00
SCF Energy                                 R     -2.639451556468080E+02
Total Energy                               R     -2.639451556468080E+02
RMS Force                                  R      3.114307196774483E-06
RMS Density                                R      6.549088545047585E-09
External E-field                           R   N=          35
  0.00000000E+00  0.00000000E+00  0.00000000E+00  0.00000000E+00  0.00000000E+00
  0.00000000E+00  0.00000000E+00  0.00000000E+00  0.00000000E+00  0.00000000E+00
  0.00000000E+00  0.00000000E+00  0.00000000E+00  0.00000000E+00  0.00000000E+00
  0.00000000E+00  0.00000000E+00  0.00000000E+00  0.00000000E+00  0.00000000E+00
  0.00000000E+00  0.00000000E+00  0.00000000E+00  0.00000000E+00  0.00000000E+00
  0.00000000E+00  0.00000000E+00  0.00000000E+00  0.00000000E+00  0.00000000E+00
  0.00000000E+00  0.00000000E+00  0.00000000E+00  0.00000000E+00  0.00000000E+00
IOpCl                                      I                0
IROHF                                      I                0
Alpha Orbital Energies                     R   N=          66
 -1.43105302E+01 -1.43063878E+01 -1.01681478E+01 -1.01650132E+01 -1.01498092E+01
 -1.01285571E+01 -1.04227086E+00 -8.26181353E-01 -7.83378572E-01 -6.83124603E-01
 -6.18936634E-01 -5.49863030E-01 -5.25468840E-01 -4.76228765E-01 -4.69448800E-01
 -4.15561505E-01 -4.03785388E-01 -3.84672605E-01 -3.58924319E-01 -2.82937777E-01
 -2.77200285E-01 -2.14256895E-01 -7.48137656E-02  1.19766429E-02  4.02775544E-02
  1.34012734E-01  1.38844247E-01  1.51734813E-01  1.58672231E-01  1.69770970E-01
  1.99247573E-01  2.81130148E-01  3.11013351E-01  3.60904378E-01  3.72865760E-01
  4.33361426E-01  6.36698637E-01  6.67774250E-01  6.95524112E-01  7.24366836E-01
  7.32833840E-01  7.61806613E-01  7.91796583E-01  8.16250478E-01  8.18237825E-01
  8.48947608E-01  8.62807289E-01  9.85741846E-01  1.00584302E+00  1.02852044E+00
  1.05579646E+00  1.06447222E+00  1.11698138E+00  1.13541904E+00  1.18316818E+00
  1.27827083E+00  1.32854752E+00  1.36534106E+00  1.37152966E+00  1.43559389E+00
  1.45059008E+00  1.53056196E+00  1.71373343E+00  1.85753675E+00  2.24569634E+00
  2.67913563E+00
Alpha MO coefficients                      R   N=        4356
  1.64719197E-04  2.52563303E-04 -1.38528232E-04 -1.49634244E-04 -1.36895208E-03
 -5.45397198E-03 -2.92975662E-03  1.58845037E-03 -2.98597419E-03 -1.63763208E-01
 -2.09142011E-02 -7.31455177E-04  4.05649561E-04  6.06745237E-04  3.25893369E-02
  1.27632120E-02 -6.44394198E-03  1.90526923E-04  9.71388599E-01  1.08402579E-01
 -3.22163614E-05 -6.10732536E-04 -5.11502437E-03 -7.70396292E-02  7.87954660E-04
  2.08314330E-03  2.03713635E-02 -4.75107458E-04 -1.70805210E-03 -8.34154364E-04
  3.83634758E-04  7.32165431E-05  1.91010503E-02 -1.77223167E-02  1.10431540E-02
  1.23452444E-02  8.36494535E-06  1.35333239E-04  2.13878627E-04 -5.41136388E-05
  2.68490005E-04  1.56609645E-04  4.73177983E-05 -7.17609452E-04  1.36211690E-04
  1.12945435E-06 -4.04946466E-04  8.84420507E-05 -2.15111811E-04  3.02239648E-05
 -8.27769485E-06  1.37968370E-04  6.02787846E-05  8.04726955E-04  1.39056939E-03
  3.25553589E-03 -3.47734186E-03 -1.08311105E-02  1.20104127E-03  5.10044531E-03
 -1.47910320E-03 -3.21835245E-03 -1.01068077E-03  3.60802553E-03  5.97664829E-04
 -3.98949775E-04 -4.43465719E-04 -1.64066829E-03  2.40309469E-04  4.64283369E-04
  3.69332332E-04  1.55348830E-02  3.36881795E-03 -2.91303134E-03  2.33121194E-02
  9.71211601E-01  1.06955175E-01  3.09822550E-03 -1.64522287E-03 -3.17725065E-03
 -6.73764036E-02 -9.17709872E-03  5.24667221E-03  1.27633929E-02  1.63208121E-01
  1.53842629E-02  1.26313531E-04 -1.60497337E-04 -5.47678348E-04  7.53010191E-03
 -6.81957194E-03  3.25938853E-03 -5.02052304E-03 -7.44293853E-05 -8.78143929E-04
  8.68444482E-04 -4.05977397E-04 -2.60915201E-04  6.70627081E-04 -2.32651091E-03
  9.83948023E-04  1.10912269E-03 -1.08462800E-05 -3.12549351E-04 -5.38976853E-04
 -6.73044500E-04 -8.01600641E-05  2.07112749E-03  3.85376531E-03  7.26703980E-03
 -7.33933346E-03  9.24931541E-04  5.33594195E-03 -1.40340237E-03 -2.14775349E-03
 -6.81381749E-05 -4.92706362E-04  3.04049686E-04 -1.26121646E-04  1.51894045E-04
  1.18113398E-03 -1.37424412E-03  5.44519508E-04 -1.37692704E-03 -2.18943220E-04
  1.10338983E-03 -1.27101499E-04  5.19645712E-04  3.02851875E-04 -1.42943384E-03
 -5.61770008E-04  3.85025786E-03 -6.18448604E-03 -3.95086679E-04 -1.24461938E-04
 -7.49329919E-05 -7.72556697E-04 -2.21690957E-03 -3.67735983E-04  8.21073915E-04
  1.82207432E-03 -9.17264196E-05 -1.11632436E-03 -4.39799544E-04  2.94013499E-04
  3.12422477E-04  3.04678781E-03  2.43583621E-03 -1.48484972E-03 -4.80963265E-04
  1.75699349E-04  3.01963260E-04 -4.06336433E-05 -1.72673786E-05 -2.98797980E-04
  4.72697565E-03  3.36494705E-03 -1.41404954E-03  2.03113997E-03  9.85004289E-01
  1.06132047E-01  5.34205196E-04 -1.72425682E-04  5.46572357E-04 -7.68086350E-02
 -1.23863142E-02  4.98007015E-03 -6.82750295E-03  9.16179398E-04  3.19381492E-04
  2.15563996E-04 -9.74221610E-05  1.39574082E-04  8.33704791E-04  4.42941386E-04
  1.07403543E-03 -5.83663060E-04  1.11589056E-04  5.93643448E-04 -1.34160566E-04
 -2.65534528E-04 -2.95998568E-02 -8.14806701E-03  2.55996601E-03 -9.93336383E-04
  1.54432377E-03  3.43220645E-02 -1.50777215E-02  5.87234724E-03 -8.74058989E-03
 -1.30768798E-03  1.20558038E-03 -1.19484147E-03  1.29847730E-03 -2.60552853E-03
  1.32797241E-02  2.53211458E-04  3.32185308E-04  9.85611667E-01  1.08430972E-01
  5.36932968E-04 -8.97767494E-04  2.94254386E-04 -8.28012374E-02  6.14197095E-03
  1.02751820E-02  3.72330962E-03  7.77961070E-05  6.89568985E-05  7.21229172E-04
 -1.30082374E-04 -2.08131258E-04  7.86184660E-03 -4.24026554E-03 -3.18757334E-04
 -3.69458835E-03 -1.87545771E-05 -5.80914712E-04  9.09353796E-05  1.14271690E-05
  6.10426895E-04 -1.75434367E-04 -1.39012496E-03  1.14770146E-03 -7.12032457E-04
  6.21576994E-03  1.11129007E-03  2.07049306E-03 -8.60879882E-04  4.99108560E-04
 -1.20822745E-02 -1.30331229E-02  5.54487802E-03 -3.10845990E-03 -1.46236525E-02
 -6.65390437E-03 -1.75627672E-03 -1.87076928E-03 -1.77030498E-03  3.34541028E-02
  1.11691054E-02  1.02268342E-02  1.18415282E-02 -1.72137324E-03  6.05284592E-04
 -9.23957141E-04  2.70168079E-03 -6.89030974E-03 -2.00479074E-03 -2.19704803E-04
  8.80954946E-05 -6.86568405E-05  1.47259624E-02 -5.45107618E-03  1.89857988E-03
 -5.14728790E-03 -2.46327298E-04  8.90190247E-04 -5.32757434E-04 -3.89759341E-04
 -1.77539762E-03  5.50255762E-03 -1.79026518E-03  1.27658484E-02  6.39570154E-03
 -2.14354674E-04 -2.30173045E-04  1.83520184E-04 -2.48919172E-04  2.17015263E-03
  5.49572021E-04 -9.14584675E-04  1.48748240E-03 -4.74786319E-05 -4.36701493E-04
 -1.07158901E-04  7.70739207E-05  1.53213092E-05  1.51257919E-03  1.78985028E-03
 -8.11982168E-04  1.16910844E-03  7.13728195E-05  2.74345490E-05 -5.99843070E-04
  2.88670594E-04 -7.59773392E-05 -2.42274295E-03  1.35667667E-03 -6.52665955E-04
  5.92436363E-04  2.93413394E-02 -1.68208151E-03 -2.73573014E-03  1.03316905E-03
 -1.87803700E-03  2.79185683E-02  1.36351101E-02 -5.10353085E-03  9.32768022E-03
 -8.26238205E-05  4.18475339E-05 -6.33345596E-05 -8.16651995E-05  3.35854420E-06
 -5.23199638E-04 -1.67575585E-04  4.01950234E-04 -8.79768019E-04  1.16696553E-04
  3.59486352E-04 -8.76650849E-05 -2.99326828E-04  9.85038856E-01  1.06433832E-01
 -2.01075020E-04  1.01731452E-04 -5.24022188E-05 -7.93852830E-02  8.54250027E-03
 -3.50990720E-03  3.83095384E-03 -1.74971556E-03  1.42207192E-02 -2.08691085E-03
  1.33178495E-02 -9.37003945E-04  1.89292992E-03 -1.21341682E-04  2.53452750E-04
  1.43222023E-02 -3.14779294E-03  2.14200591E-03  2.21295447E-03  1.28888090E-03
  2.77678521E-02 -1.06376646E-02 -1.12089808E-02 -6.06602778E-03  4.05530366E-05
 -2.26027700E-04  1.26088020E-04  1.00089127E-04  3.58040505E-04 -6.62964391E-04
  6.81585482E-04  7.43038469E-04  3.88702987E-04  1.45754633E-05  1.33421414E-04
  4.70262973E-06 -1.18339644E-04 -1.33954909E-06 -8.35793449E-04 -3.31240356E-04
  3.89508017E-04 -3.05882441E-05 -7.90018359E-04  1.53169171E-04  5.11141777E-05
 -9.24428807E-05 -2.58039571E-04 -9.34026097E-04 -3.73354184E-04  6.69416864E-04
  2.06467725E-03  9.85369506E-01  1.06404181E-01  2.12924721E-04  1.28251534E-04
  1.24867755E-04 -7.87699652E-02 -5.22986226E-03 -5.42990906E-03 -5.29611388E-03
 -1.84980118E-03  1.42700323E-02 -2.04395688E-03  1.35925253E-02  3.05835032E-05
  5.33910618E-06 -3.36825475E-05  3.68414246E-05  5.36962040E-05 -9.66994311E-05
  5.11361880E-04 -4.70447719E-04 -8.92395396E-04  1.22761370E-04  3.65496522E-04
 -1.06055178E-04 -5.01095496E-04 -3.67338869E-04  2.47341983E-03 -9.58908453E-04
  2.60258036E-03 -4.41580896E-02  4.90012308E-02  1.15287516E-02 -6.07045075E-03
  4.80765401E-02  5.63104830E-02 -1.50177887E-03  1.96630398E-03 -4.37724602E-02
 -1.57453449E-01  1.54304862E-01  1.29290428E-01 -6.40300090E-02  1.06656639E-02
  3.98872288E-01  6.27027896E-02 -3.31715695E-02 -4.37001839E-02 -1.61073500E-01
  1.56460904E-01 -8.35912933E-02  3.04569913E-02 -1.14691056E-01  4.21109892E-01
 -1.13754368E-02 -5.51677415E-03 -9.21552166E-02 -4.84439582E-02  5.62371442E-02
 -4.30006987E-02  2.53755505E-02  2.20544173E-02  5.36919695E-02  3.73384769E-02
 -2.13264016E-02 -2.20543973E-02 -9.96808366E-03  1.15150983E-02  7.79167194E-03
  7.01408511E-03  8.75205249E-03  1.32108550E-03 -1.01859692E-02 -1.86537793E-02
  1.90970805E-02  1.55502687E-03 -1.21969540E-02  4.70778789E-03  6.30930968E-03
 -1.07495397E-02  1.32242281E-02 -1.27428175E-02  5.50619128E-03 -4.91437166E-03
 -7.01975801E-04 -4.40416612E-03  6.88798602E-03  2.93436001E-02  1.88533721E-03
 -1.24155505E-02  5.17524470E-03  7.56069583E-03  1.68349723E-02 -7.32933132E-03
  1.25312984E-02 -1.15831258E-02 -1.07456000E-01  1.18220917E-01 -2.34560208E-02
 -2.10179058E-02  2.91766233E-02  2.13787428E-01 -1.13744556E-02  1.95596531E-03
 -1.75868603E-02 -8.49722391E-02  7.49491205E-02 -1.35030289E-02 -1.56491718E-03
 -7.28704555E-02  2.99846644E-01  3.30053505E-02 -2.24581877E-02 -6.41459383E-02
  7.27485215E-02 -6.31543325E-02 -9.34823393E-02  5.13081251E-02  2.45773716E-02
 -2.62449336E-01 -3.90970426E-02  2.65029059E-02  6.14271193E-02  1.36124354E-01
 -1.51021594E-01 -2.25632335E-02 -4.80396749E-04 -6.90484516E-02 -2.62404409E-01
 -1.90188212E-02  8.82991925E-03 -3.46829450E-03 -6.69434521E-02  7.42440951E-02
  3.24432603E-02  3.41383373E-02  3.32465533E-02  1.24850893E-01 -2.29248024E-03
 -5.68135953E-03  1.01419918E-02  2.77862715E-02 -5.67352983E-03  2.67277425E-02
  2.02605348E-04  1.03479831E-01 -1.13030886E-01  6.88719720E-02 -2.83601794E-02
  3.20819648E-02 -2.12561885E-01  1.51578911E-02 -8.84728277E-03 -7.35299817E-03
 -4.47517332E-02  4.76105822E-03 -4.21110808E-02 -2.43246631E-03 -4.89390901E-02
  3.99784659E-03  4.60614309E-02 -5.36797124E-03 -1.31743454E-01  1.42477088E-01
 -5.28794764E-02 -4.63641018E-02 -3.52508041E-02  3.00759873E-01 -4.76024470E-03
 -1.29506492E-02 -8.47877067E-03  1.88624977E-02 -2.21626858E-02 -7.83566278E-02
  2.30182222E-02 -1.01965349E-01 -5.20834575E-02 -3.36801678E-02  9.05245102E-03
 -4.57383289E-02  4.50269159E-02 -4.49227632E-02  9.24968312E-02 -4.67213428E-02
  1.94092095E-02 -1.48582930E-01  4.43530372E-02 -2.13788269E-02  2.57131848E-02
 -9.21649911E-02  1.00049329E-01  6.75204144E-02 -2.83748560E-02  2.88728712E-02
  2.23437842E-01  1.47544023E-02 -6.68605834E-03  3.01286737E-03 -1.22547373E-01
  1.33666458E-01  5.06420399E-02  5.36690659E-02  4.15406384E-02  2.59058154E-01
  5.17482557E-03  7.03107317E-03 -5.18453981E-04  5.50711500E-02  2.50712326E-03
  5.51984719E-02 -1.92906910E-04 -1.02781204E-01  1.13862004E-01 -5.21208988E-02
  1.99475038E-02 -3.29578411E-02  2.23160712E-01  1.67511485E-03 -1.59650947E-03
 -6.33473446E-03  4.83259356E-02  8.33245246E-04  4.87577354E-02 -6.31015159E-04
  4.83563756E-02 -7.06985564E-03  6.18512703E-02  3.32849045E-03 -5.59325392E-03
  5.62207727E-03  6.41041078E-02  6.97927215E-02  1.50784382E-01  2.17578743E-02
  4.67899306E-03  2.89744438E-02  2.49014684E-02 -1.03415164E-01  9.45319555E-02
 -2.74901637E-02  2.33309142E-02 -9.34368600E-02  3.99769681E-01  2.36755242E-02
 -5.64774977E-03 -8.33953961E-02  9.60136357E-02 -8.65562924E-02 -8.34117242E-02
  5.42376214E-02  3.49954313E-02 -3.78213388E-01 -4.36524705E-02  3.61310415E-02
  7.56166624E-02  1.09284250E-02 -9.47865200E-03  1.49044063E-01 -7.44345483E-02
 -1.98440443E-02 -3.81402124E-02  1.95571765E-02 -7.19923120E-03 -5.18344586E-03
  1.14740700E-01 -1.21540755E-01 -1.62605673E-02 -1.69724635E-02  1.03284254E-02
 -3.07387962E-01 -9.26700901E-03 -1.46150331E-02  1.79123203E-02 -6.57300429E-02
 -2.01452959E-02 -7.74740320E-02 -1.79437928E-02 -1.12872825E-01  1.20575966E-01
  8.49884114E-03 -7.76557841E-03 -2.55518674E-02  3.21777423E-01  1.25354107E-02
 -1.11659693E-02 -2.85854464E-02  6.51107619E-02  1.68859308E-02  8.37223898E-02
  1.72666804E-02 -3.14129362E-03  4.37831354E-03  7.92570777E-03 -1.01408401E-03
  6.69275112E-02 -6.58297355E-02 -7.18579053E-02 -7.66988656E-02 -8.60586315E-02
 -2.33446600E-01 -4.41987443E-02 -2.37504425E-02 -3.46554280E-02 -1.77456420E-02
  2.11714021E-02  7.68784388E-02 -4.69008528E-02  1.86286698E-01  5.76779071E-02
  3.73609640E-02 -2.85665460E-02  1.10502758E-01 -1.99826994E-02  2.38589672E-02
 -1.78732243E-01  8.89931471E-02  4.49475672E-02  6.31976214E-02 -1.09880742E-01
  5.34910669E-02  3.21721278E-02  7.91768759E-02 -8.22581993E-02  1.06810618E-01
 -4.89773797E-02  3.46915188E-02 -2.65207150E-01  4.03209147E-02 -1.94464628E-02
  3.31133508E-02 -9.39765022E-02  9.74701884E-02 -2.87003084E-02 -2.76221415E-02
 -3.07274737E-02  2.82329299E-01 -6.57249793E-03 -1.24986022E-02 -6.31939391E-03
  7.66038432E-02  2.92190429E-02  8.29507383E-02  3.83356508E-02 -9.53989728E-02
  9.83034333E-02  6.53602159E-02 -2.81155910E-02  2.62209150E-02  2.96697698E-01
  2.42247622E-02 -9.59647352E-03  6.40802555E-03  8.15639530E-02  3.40560631E-02
  9.39522349E-02  4.27469670E-02 -8.37158516E-02 -1.87177436E-02 -7.25120379E-02
 -3.04843426E-02  6.75035416E-02 -7.29016517E-02 -2.86408730E-02 -8.68492763E-02
  7.95851552E-02 -2.24109035E-01 -2.20931813E-02 -5.65734109E-02  3.92537463E-02
 -3.89312237E-02  3.82346360E-02  2.18805141E-04 -4.02069529E-02  1.59019243E-02
  1.63664799E-01  7.21664198E-03 -3.79215811E-02 -2.31466638E-03  5.86470785E-02
 -5.64452379E-02 -1.02776285E-01  2.63990495E-02 -2.77169758E-02 -2.36473861E-01
 -6.76662141E-02  1.40840687E-02 -3.10025729E-03 -7.84265302E-02  8.43784308E-02
  6.02849543E-02 -7.22404641E-02 -2.05903035E-01  2.52866057E-01  8.12448298E-03
 -3.46530744E-02 -1.34773232E-01 -4.18032995E-02  4.02856722E-02 -6.17804440E-02
 -9.05337449E-02  3.63890169E-03  1.45717630E-01 -2.55332718E-02 -4.94408614E-02
  1.39393523E-02  8.32091305E-02  4.93184152E-02  3.38750316E-02  2.13128474E-02