 Entering Gaussian System, Link 0=/home/george/soft/gauss/g09/g09
 Initial command:
 /home/george/soft/gauss/g09/l1.exe "./tmp/6165481552517470805/Gau-26400.inp" -scrdir="./tmp/6165481552517470805/"
 Entering Link 1 = /home/george/soft/gauss/g09/l1.exe PID=     26402.
  
 Copyright (c) 1988,1990,1992,1993,1995,1998,2003,2009,2013,
            Gaussian, Inc.  All Rights Reserved.
  
 This is part of the Gaussian(R) 09 program.  It is based on
 the Gaussian(R) 03 system (copyright 2003, Gaussian, Inc.),
 the Gaussian(R) 98 system (copyright 1998, Gaussian, Inc.),
 the Gaussian(R) 94 system (copyright 1995, Gaussian, Inc.),
 the Gaussian 92(TM) system (copyright 1992, Gaussian, Inc.),
 the Gaussian 90(TM) system (copyright 1990, Gaussian, Inc.),
 the Gaussian 88(TM) system (copyright 1988, Gaussian, Inc.),
 the Gaussian 86(TM) system (copyright 1986, Carnegie Mellon
 University), and the Gaussian 82(TM) system (copyright 1983,
 Carnegie Mellon University). Gaussian is a federally registered
 trademark of Gaussian, Inc.
  
 This software contains proprietary and confidential information,
 including trade secrets, belonging to Gaussian, Inc.
  
 This software is provided under written license and may be
 used, copied, transmitted, or stored only in accord with that
 written license.
  
 The following legend is applicable only to US Government
 contracts under FAR:
  
                    RESTRICTED RIGHTS LEGEND
  
 Use, reproduction and disclosure by the US Government is
 subject to restrictions as set forth in subparagraphs (a)
 and (c) of the Commercial Computer Software - Restricted
 Rights clause in FAR 52.227-19.
  
 Gaussian, Inc.
 340 Quinnipiac St., Bldg. 40, Wallingford CT 06492
  
  
 ---------------------------------------------------------------
 Warning -- This program may not be used in any manner that
 competes with the business of Gaussian, Inc. or will provide
 assistance to any competitor of Gaussian, Inc.  The licensee
 of this program is prohibited from giving any competitor of
 Gaussian, Inc. access to this program.  By using this program,
 the user acknowledges that Gaussian, Inc. is engaged in the
 business of creating and licensing software in the field of
 computational chemistry and represents and warrants to the
 licensee that it is not a competitor of Gaussian, Inc. and that
 it will not use this program in any manner prohibited above.
 ---------------------------------------------------------------
  

 Cite this work as:
 Gaussian 09, Revision D.01,
 M. J. Frisch, G. W. Trucks, H. B. Schlegel, G. E. Scuseria, 
 M. A. Robb, J. R. Cheeseman, G. Scalmani, V. Barone, B. Mennucci, 
 G. A. Petersson, H. Nakatsuji, M. Caricato, X. Li, H. P. Hratchian, 
 A. F. Izmaylov, J. Bloino, G. Zheng, J. L. Sonnenberg, M. Hada, 
 M. Ehara, K. Toyota, R. Fukuda, J. Hasegawa, M. Ishida, T. Nakajima, 
 Y. Honda, O. Kitao, H. Nakai, T. Vreven, J. A. Montgomery, Jr., 
 J. E. Peralta, F. Ogliaro, M. Bearpark, J. J. Heyd, E. Brothers, 
 K. N. Kudin, V. N. Staroverov, T. Keith, R. Kobayashi, J. Normand, 
 K. Raghavachari, A. Rendell, J. C. Burant, S. S. Iyengar, J. Tomasi, 
 M. Cossi, N. Rega, J. M. Millam, M. Klene, J. E. Knox, J. B. Cross, 
 V. Bakken, C. Adamo, J. Jaramillo, R. Gomperts, R. E. Stratmann, 
 O. Yazyev, A. J. Austin, R. Cammi, C. Pomelli, J. W. Ochterski, 
 R. L. Martin, K. Morokuma, V. G. Zakrzewski, G. A. Voth, 
 P. Salvador, J. J. Dannenberg, S. Dapprich, A. D. Daniels, 
 O. Farkas, J. B. Foresman, J. V. Ortiz, J. Cioslowski, 
 and D. J. Fox, Gaussian, Inc., Wallingford CT, 2013.
 
 ******************************************
 Gaussian 09:  AM64L-G09RevD.01 24-Apr-2013
                23-Oct-2017 
 ******************************************
 %RWF=./tmp/6165481552517470805/rwf
 %Int=./tmp/6165481552517470805/int
 %D2E=./tmp/6165481552517470805/d2e
 %Scr=./tmp/6165481552517470805/skr
 %NoSave
 %chk=./tmp/6165481552517470805/chk
 %nproc=3
 Will use up to    3 processors via shared memory.
 %mem=1000mb
 ------------------------
 # B3lyp/3-21g nosym freq
 ------------------------
 1/10=4,30=1,38=1/1,3;
 2/12=2,15=1,17=6,18=5,40=1/2;
 3/5=5,11=2,16=1,25=1,30=1,71=2,74=-5,140=1/1,2,3;
 4//1;
 5/5=2,38=5,98=1/2;
 8/6=4,10=90,11=11/1;
 11/6=1,8=1,9=11,15=111,16=1,31=1/1,2,10;
 10/6=1,31=1/2;
 6/7=2,8=2,9=2,10=2,18=1,28=1/1;
 7/8=1,10=1,25=1,30=1/1,2,3,16;
 1/10=4,30=1/3;
 99//99;


 Symbolic Z-matrix:
 Charge =  0 Multiplicity = 1
 6                    -0.02175   0.83001   0.0641 
 7                     0.11596   0.85987   1.5166 
 7                     1.15058   0.39197   2.10413 
 6                     2.18662  -0.24535   1.32493 
 6                    -0.82074  -0.0124   -0.587 
 1                    -1.34102  -0.81076  -0.06981 
 1                    -0.98397   0.08362  -1.65387 
 6                     3.27274  -0.66585   1.97331 
 1                     3.3455   -0.52232   3.04578 
 1                     4.0949   -1.1508    1.46094 
 1                     2.04401  -0.37023   0.25512 
 1                     0.47909   1.65574  -0.43804 
 

 GradGradGradGradGradGradGradGradGradGradGradGradGradGradGradGradGradGrad
 Berny optimization.
 Initialization pass.
 Trust Radius=3.00D-01 FncErr=1.00D-07 GrdErr=1.00D-07
 Number of steps in this run=      2 maximum allowed number of steps=      2.
 GradGradGradGradGradGradGradGradGradGradGradGradGradGradGradGradGradGrad

                          Input orientation:                          
 ---------------------------------------------------------------------
 Center     Atomic      Atomic             Coordinates (Angstroms)
 Number     Number       Type             X           Y           Z
 ---------------------------------------------------------------------
      1          6           0       -0.021747    0.830014    0.064096
      2          7           0        0.115962    0.859867    1.516601
      3          7           0        1.150583    0.391975    2.104135
      4          6           0        2.186623   -0.245354    1.324929
      5          6           0       -0.820737   -0.012402   -0.587004
      6          1           0       -1.341018   -0.810756   -0.069813
      7          1           0       -0.983967    0.083622   -1.653866
      8          6           0        3.272742   -0.665846    1.973310
      9          1           0        3.345500   -0.522325    3.045778
     10          1           0        4.094903   -1.150800    1.460935
     11          1           0        2.044012   -0.370235    0.255125
     12          1           0        0.479091    1.655740   -0.438036
 ---------------------------------------------------------------------
                    Distance matrix (angstroms):
                    1          2          3          4          5
     1  C    0.000000
     2  N    1.459324   0.000000
     3  N    2.393323   1.278499   0.000000
     4  C    2.760981   2.354971   1.444551   0.000000
     5  C    1.331158   2.462400   3.360335   3.571270   0.000000
     6  H    2.109629   2.725891   3.518620   3.835263   1.084227
     7  H    2.105793   3.444454   4.332892   4.362807   1.083540
     8  C    4.091009   3.535766   2.374796   1.332991   4.872244
     9  H    4.696553   3.831286   2.557400   2.093091   5.551096
    10  H    4.777196   4.458459   3.385687   2.116569   5.445505
    11  H    2.396759   2.611867   2.190437   1.086469   3.007326
    12  H    1.088485   2.141468   2.917300   3.104492   2.120010
                    6          7          8          9         10
     6  H    0.000000
     7  H    1.853813   0.000000
     8  C    5.047983   5.642489   0.000000
     9  H    5.635030   6.418576   1.084473   0.000000
    10  H    5.657567   6.084465   1.083355   1.862341   0.000000
    11  H    3.429005   3.608170   2.132914   3.082978   2.503880
    12  H    3.087392   2.467860   4.359913   5.009714   4.955488
                   11         12
    11  H    0.000000
    12  H    2.652174   0.000000
 Symmetry turned off by external request.
 Stoichiometry    C4H6N2
 Framework group  C1[X(C4H6N2)]
 Deg. of freedom    30
 Full point group                 C1      NOp   1
 Rotational constants (GHZ):      9.5674391      2.0802913      1.8177432
 Standard basis: 3-21G (6D, 7F)
    66 basis functions,   108 primitive gaussians,    66 cartesian basis functions
    22 alpha electrons       22 beta electrons
       nuclear repulsion energy       203.4556561911 Hartrees.
 NAtoms=   12 NActive=   12 NUniq=   12 SFac= 1.00D+00 NAtFMM=   60 NAOKFM=F Big=F
 Integral buffers will be    131072 words long.
 Raffenetti 2 integral format.
 Two-electron integral symmetry is turned off.
 One-electron integrals computed using PRISM.
 NBasis=    66 RedAO= T EigKep=  1.05D-02  NBF=    66
 NBsUse=    66 1.00D-06 EigRej= -1.00D+00 NBFU=    66
 ExpMin= 1.83D-01 ExpMax= 2.43D+02 ExpMxC= 2.43D+02 IAcc=1 IRadAn=         1 AccDes= 0.00D+00
 Harris functional with IExCor=  402 and IRadAn=       1 diagonalized for initial guess.
 HarFok:  IExCor=  402 AccDes= 0.00D+00 IRadAn=         1 IDoV= 1 UseB2=F ITyADJ=14
 ICtDFT=  3500011 ScaDFX=  1.000000  1.000000  1.000000  1.000000
 FoFCou: FMM=F IPFlag=           0 FMFlag=      100000 FMFlg1=           0
         NFxFlg=           0 DoJE=T BraDBF=F KetDBF=T FulRan=T
         wScrn=  0.000000 ICntrl=     500 IOpCl=  0 I1Cent=   200000004 NGrid=           0
         NMat0=    1 NMatS0=      1 NMatT0=    0 NMatD0=    1 NMtDS0=    0 NMtDT0=    0
 Symmetry not used in FoFCou.
 Keep R1 ints in memory in canonical form, NReq=3363794.
 Requested convergence on RMS density matrix=1.00D-08 within 128 cycles.
 Requested convergence on MAX density matrix=1.00D-06.
 Requested convergence on             energy=1.00D-06.
 No special actions if energy rises.
 Integral accuracy reduced to 1.0D-05 until final iterations.
 Initial convergence to 1.0D-05 achieved.  Increase integral accuracy.
 SCF Done:  E(RB3LYP) =  -263.945155647     A.U. after   15 cycles
            NFock= 15  Conv=0.65D-08     -V/T= 2.0087
 DoSCS=F DFT=T ScalE2(SS,OS)=  1.000000  1.000000
 Range of M.O.s used for correlation:     1    66
 NBasis=    66 NAE=    22 NBE=    22 NFC=     0 NFV=     0
 NROrb=     66 NOA=    22 NOB=    22 NVA=    44 NVB=    44
 Symmetrizing basis deriv contribution to polar:
 IMax=3 JMax=2 DiffMx= 0.00D+00
 G2DrvN: will do    13 centers at a time, making    1 passes.
 Calling FoFCou, ICntrl=  3107 FMM=F I1Cent=   0 AccDes= 0.00D+00.
 End of G2Drv F.D. properties file   721 does not exist.
 End of G2Drv F.D. properties file   722 does not exist.
 End of G2Drv F.D. properties file   788 does not exist.
          IDoAtm=111111111111
          Differentiating once with respect to electric field.
                with respect to dipole field.
          Differentiating once with respect to nuclear coordinates.
 Keep R1 ints in memory in canonical form, NReq=3333273.
          There are    39 degrees of freedom in the 1st order CPHF.  IDoFFX=6 NUNeed=     3.
     36 vectors produced by pass  0 Test12= 2.48D-15 2.56D-09 XBig12= 1.03D+02 7.85D+00.
 AX will form    36 AO Fock derivatives at one time.
     36 vectors produced by pass  1 Test12= 2.48D-15 2.56D-09 XBig12= 2.20D+01 9.70D-01.
     36 vectors produced by pass  2 Test12= 2.48D-15 2.56D-09 XBig12= 1.81D-01 1.01D-01.
     36 vectors produced by pass  3 Test12= 2.48D-15 2.56D-09 XBig12= 2.89D-04 2.32D-03.
     36 vectors produced by pass  4 Test12= 2.48D-15 2.56D-09 XBig12= 1.91D-07 5.76D-05.
     13 vectors produced by pass  5 Test12= 2.48D-15 2.56D-09 XBig12= 8.57D-11 1.63D-06.
      3 vectors produced by pass  6 Test12= 2.48D-15 2.56D-09 XBig12= 4.26D-14 2.87D-08.
 InvSVY:  IOpt=1 It=  1 EMax= 1.78D-15
 Solved reduced A of dimension   196 with    39 vectors.
 Isotropic polarizability for W=    0.000000       55.18 Bohr**3.
 End of Minotr F.D. properties file   721 does not exist.
 End of Minotr F.D. properties file   722 does not exist.
 End of Minotr F.D. properties file   788 does not exist.

 **********************************************************************

            Population analysis using the SCF density.

 **********************************************************************

 Alpha  occ. eigenvalues --  -14.31053 -14.30639 -10.16815 -10.16501 -10.14981
 Alpha  occ. eigenvalues --  -10.12856  -1.04227  -0.82618  -0.78338  -0.68312
 Alpha  occ. eigenvalues --   -0.61894  -0.54986  -0.52547  -0.47623  -0.46945
 Alpha  occ. eigenvalues --   -0.41556  -0.40379  -0.38467  -0.35892  -0.28294
 Alpha  occ. eigenvalues --   -0.27720  -0.21426
 Alpha virt. eigenvalues --   -0.07481   0.01198   0.04028   0.13401   0.13884
 Alpha virt. eigenvalues --    0.15173   0.15867   0.16977   0.19925   0.28113
 Alpha virt. eigenvalues --    0.31101   0.36090   0.37287   0.43336   0.63670
 Alpha virt. eigenvalues --    0.66777   0.69552   0.72437   0.73283   0.76181
 Alpha virt. eigenvalues --    0.79180   0.81625   0.81824   0.84895   0.86281
 Alpha virt. eigenvalues --    0.98574   1.00584   1.02852   1.05580   1.06447
 Alpha virt. eigenvalues --    1.11698   1.13542   1.18317   1.27827   1.32855
 Alpha virt. eigenvalues --    1.36534   1.37153   1.43559   1.45059   1.53056
 Alpha virt. eigenvalues --    1.71373   1.85754   2.24570   2.67914
          Condensed to atoms (all electrons):
               1          2          3          4          5          6
     1  C    5.144068   0.225777  -0.077807  -0.027755   0.511056  -0.052297
     2  N    0.225777   6.867875   0.293816  -0.075534  -0.058172  -0.002221
     3  N   -0.077807   0.293816   6.882353   0.240838   0.001327   0.000404
     4  C   -0.027755  -0.075534   0.240838   5.163982  -0.000212   0.000297
     5  C    0.511056  -0.058172   0.001327  -0.000212   5.208150   0.380990
     6  H   -0.052297  -0.002221   0.000404   0.000297   0.380990   0.492905
     7  H   -0.040062   0.001876  -0.000050  -0.000025   0.373997  -0.026276
     8  C    0.000370   0.004705  -0.067086   0.493114  -0.000010  -0.000007
     9  H    0.000049  -0.000009   0.004796  -0.049730  -0.000003   0.000000
    10  H    0.000006  -0.000053   0.002085  -0.041223   0.000002   0.000000
    11  H    0.019298  -0.005875  -0.042015   0.332963   0.000910  -0.000120
    12  H    0.359916  -0.036896  -0.000036   0.001990  -0.043417   0.003303
               7          8          9         10         11         12
     1  C   -0.040062   0.000370   0.000049   0.000006   0.019298   0.359916
     2  N    0.001876   0.004705  -0.000009  -0.000053  -0.005875  -0.036896
     3  N   -0.000050  -0.067086   0.004796   0.002085  -0.042015  -0.000036
     4  C   -0.000025   0.493114  -0.049730  -0.041223   0.332963   0.001990
     5  C    0.373997  -0.000010  -0.000003   0.000002   0.000910  -0.043417
     6  H   -0.026276  -0.000007   0.000000   0.000000  -0.000120   0.003303
     7  H    0.499181   0.000001   0.000000   0.000000   0.000185  -0.003629
     8  C    0.000001   5.226448   0.364659   0.369364  -0.049584   0.000011
     9  H    0.000000   0.364659   0.473178  -0.022925   0.003621  -0.000003
    10  H    0.000000   0.369364  -0.022925   0.487847  -0.001354   0.000000
    11  H    0.000185  -0.049584   0.003621  -0.001354   0.525686  -0.001166
    12  H   -0.003629   0.000011  -0.000003   0.000000  -0.001166   0.495979
 Mulliken charges:
               1
     1  C   -0.062618
     2  N   -0.215289
     3  N   -0.238625
     4  C   -0.038705
     5  C   -0.374618
     6  H    0.203021
     7  H    0.194802
     8  C   -0.341985
     9  H    0.226367
    10  H    0.206250
    11  H    0.217451
    12  H    0.223949
 Sum of Mulliken charges =   0.00000
 Mulliken charges with hydrogens summed into heavy atoms:
               1
     1  C    0.161331
     2  N   -0.215289
     3  N   -0.238625
     4  C    0.178746
     5  C    0.023205
     8  C    0.090632
 APT charges:
               1
     1  C    0.228560
     2  N   -0.264527
     3  N   -0.002323
     4  C   -0.061837
     5  C   -0.191052
     6  H    0.067109
     7  H    0.033891
     8  C   -0.000209
     9  H    0.079797
    10  H    0.047196
    11  H    0.025873
    12  H    0.037521
 Sum of APT charges =   0.00000
 APT charges with hydrogens summed into heavy atoms:
               1
     1  C    0.266081
     2  N   -0.264527
     3  N   -0.002323
     4  C   -0.035964
     5  C   -0.090051
     8  C    0.126784
 Electronic spatial extent (au):  <R**2>=            998.6284
 Charge=              0.0000 electrons
 Dipole moment (field-independent basis, Debye):
    X=              1.9412    Y=             -1.1180    Z=             -2.3458  Tot=              3.2436
 Quadrupole moment (field-independent basis, Debye-Ang):
   XX=            -29.3086   YY=            -36.3129   ZZ=            -40.6041
   XY=             -0.5144   XZ=              3.0142   YZ=             -3.7949
 Traceless Quadrupole moment (field-independent basis, Debye-Ang):
   XX=              6.0999   YY=             -0.9044   ZZ=             -5.1956
   XY=             -0.5144   XZ=              3.0142   YZ=             -3.7949
 Octapole moment (field-independent basis, Debye-Ang**2):
  XXX=            -80.2748  YYY=            -14.4941  ZZZ=           -122.1509  XYY=            -34.6461
  XXY=            -17.7027  XXZ=            -23.3648  XZZ=            -30.7863  YZZ=            -12.9328
  YYZ=            -39.4397  XYZ=             -3.5987
 Hexadecapole moment (field-independent basis, Debye-Ang**3):
 XXXX=           -622.0718 YYYY=           -120.4751 ZZZZ=           -520.6332 XXXY=              2.7768
 XXXZ=           -180.6388 YYYX=             50.8462 YYYZ=             -2.3622 ZZZX=           -211.0961
 ZZZY=            -21.6497 XXYY=           -138.0622 XXZZ=           -169.4901 YYZZ=           -110.8079
 XXYZ=            -17.0585 YYXZ=            -79.5586 ZZXY=              6.5965
 N-N= 2.034556561911D+02 E-N=-1.019587596796D+03  KE= 2.616813868212D+02
  Exact polarizability:  73.685  -9.437  35.000  25.751  -1.882  56.844
 Approx polarizability: 116.867 -20.568  56.368  38.400   0.233  84.671
 Calling FoFJK, ICntrl=    100127 FMM=F ISym2X=0 I1Cent= 0 IOpClX= 0 NMat=1 NMatS=1 NMatT=0.
 Full mass-weighted force constant matrix:
 Low frequencies ---  -98.4184  -11.0271   -6.9832   -0.0009   -0.0004    0.0006
 Low frequencies ---   11.7599  136.5694  212.9393
 ******    1 imaginary frequencies (negative Signs) ****** 
 Diagonal vibrational polarizability:
        5.2089129       5.0598846       3.3919525
 Harmonic frequencies (cm**-1), IR intensities (KM/Mole), Raman scattering
 activities (A**4/AMU), depolarization ratios for plane and unpolarized
 incident light, reduced masses (AMU), force constants (mDyne/A),
 and normal coordinates:
                      1                      2                      3
                      A                      A                      A
 Frequencies --    -98.3628               136.5568               212.9374
 Red. masses --      2.1252                 2.3210                 2.5895
 Frc consts  --      0.0121                 0.0255                 0.0692
 IR Inten    --      0.8736                 0.1823                 4.0574
  Atom  AN      X      Y      Z        X      Y      Z        X      Y      Z
     1   6    -0.09   0.11   0.03    -0.03  -0.04  -0.02    -0.13   0.09  -0.04
     2   7     0.02   0.10   0.02    -0.01  -0.06  -0.02     0.08  -0.01  -0.07
     3   7    -0.01   0.01  -0.01     0.04   0.05  -0.03     0.03  -0.10  -0.09
     4   6    -0.03   0.01  -0.04     0.14   0.22  -0.03     0.10  -0.11  -0.01
     5   6     0.18  -0.14   0.03    -0.08  -0.01   0.02    -0.13   0.05   0.01
     6   1     0.53  -0.40   0.00    -0.10   0.02   0.05     0.14  -0.14   0.00
     7   1     0.02  -0.09   0.06    -0.10  -0.03   0.02    -0.40   0.20   0.06
     8   6    -0.06  -0.08  -0.04    -0.06  -0.14   0.07     0.06   0.06   0.18
     9   1    -0.09  -0.19  -0.02    -0.29  -0.52   0.14    -0.14   0.17   0.18
    10   1    -0.06  -0.06  -0.06    -0.01  -0.09   0.10     0.20   0.11   0.36
    11   1     0.00   0.13  -0.05     0.35   0.57  -0.10     0.22  -0.15  -0.02
    12   1    -0.49   0.37   0.07    -0.01  -0.06  -0.04    -0.44   0.30  -0.01
                      4                      5                      6
                      A                      A                      A
 Frequencies --    273.6406               369.2631               509.9192
 Red. masses --      2.6442                 2.5824                 2.3530
 Frc consts  --      0.1167                 0.2075                 0.3605
 IR Inten    --      2.2581                 1.5722                 1.5842
  Atom  AN      X      Y      Z        X      Y      Z        X      Y      Z
     1   6    -0.12  -0.07   0.07     0.00  -0.01  -0.12    -0.04  -0.15   0.07
     2   7    -0.02  -0.08   0.05     0.06   0.04  -0.10     0.12   0.18   0.07
     3   7     0.13   0.21   0.02    -0.09  -0.02   0.13     0.02  -0.06   0.04
     4   6     0.02  -0.02   0.05    -0.01   0.03   0.22    -0.04  -0.04  -0.04
     5   6    -0.03   0.02  -0.18    -0.08   0.00  -0.05    -0.05  -0.03  -0.10
     6   1     0.04  -0.22  -0.47     0.10  -0.12  -0.03    -0.25  -0.10  -0.42
     7   1     0.00   0.36  -0.16    -0.35   0.12   0.01     0.18   0.24  -0.12
     8   6     0.02  -0.06   0.01     0.13  -0.05  -0.06    -0.04   0.04  -0.01
     9   1     0.21   0.18  -0.03     0.43  -0.36  -0.04    -0.31  -0.23   0.05
    10   1    -0.15  -0.36   0.01     0.02   0.14  -0.42     0.21   0.44   0.02
    11   1    -0.15  -0.27   0.10    -0.05   0.23   0.19     0.09   0.30  -0.10
    12   1    -0.25   0.09   0.20    -0.24   0.13  -0.13    -0.03  -0.20  -0.01
                      7                      8                      9
                      A                      A                      A
 Frequencies --    559.8521               746.6887               769.3572
 Red. masses --      2.5057                 3.1072                 2.3575
 Frc consts  --      0.4627                 1.0207                 0.8222
 IR Inten    --      8.4776                10.6226                 1.6821
  Atom  AN      X      Y      Z        X      Y      Z        X      Y      Z
     1   6     0.17  -0.08  -0.03     0.00  -0.03   0.21    -0.04  -0.03   0.15
     2   7     0.12  -0.12  -0.04    -0.02  -0.08  -0.23     0.11   0.03  -0.16
     3   7     0.06   0.01   0.07    -0.03   0.14  -0.11    -0.08  -0.12   0.00
     4   6    -0.12   0.05  -0.04    -0.06  -0.12   0.05     0.04   0.15   0.01
     5   6    -0.01   0.03   0.04     0.06   0.05   0.12     0.00   0.00   0.06
     6   1     0.31  -0.18   0.04    -0.01  -0.02  -0.06    -0.16  -0.08  -0.25
     7   1    -0.55   0.36   0.15     0.19   0.25   0.12     0.35   0.21   0.02
     8   6    -0.16   0.07  -0.03     0.01   0.00   0.01    -0.03   0.01   0.00
     9   1    -0.29   0.16  -0.03    -0.01  -0.42   0.06     0.22   0.32  -0.06
    10   1    -0.12   0.05   0.09     0.21   0.56  -0.22    -0.34  -0.56   0.02
    11   1    -0.27   0.11  -0.02     0.20   0.12  -0.02    -0.08  -0.14   0.06
    12   1    -0.18   0.18   0.07     0.03  -0.02   0.25    -0.06  -0.11  -0.01
                     10                     11                     12
                      A                      A                      A
 Frequencies --    802.9697               855.4385               947.5112
 Red. masses --      2.9455                 2.9851                 1.3926
 Frc consts  --      1.1189                 1.2870                 0.7366
 IR Inten    --      7.4882                10.2880                53.4879
  Atom  AN      X      Y      Z        X      Y      Z        X      Y      Z
     1   6    -0.17   0.16  -0.03    -0.05   0.05   0.00     0.06  -0.04  -0.01
     2   7     0.16  -0.13  -0.04     0.03  -0.05  -0.12    -0.01   0.01   0.01
     3   7     0.17  -0.04   0.03    -0.10   0.10   0.27    -0.01   0.00  -0.01
     4   6    -0.12   0.02   0.10     0.10  -0.08  -0.13     0.00   0.00   0.00
     5   6    -0.02  -0.02  -0.04    -0.02   0.00   0.00    -0.13   0.10   0.04
     6   1    -0.16   0.16   0.10    -0.03   0.03   0.03     0.58  -0.48  -0.14
     7   1     0.48  -0.56  -0.16     0.20  -0.18  -0.05     0.49  -0.36  -0.10
     8   6    -0.09   0.04   0.00     0.07  -0.04  -0.07     0.00   0.00   0.00
     9   1    -0.05  -0.10   0.01    -0.50   0.19  -0.05     0.02   0.01   0.00
    10   1    -0.08   0.24  -0.15     0.40  -0.07   0.49     0.00   0.00  -0.01
    11   1    -0.18   0.15   0.10    -0.23   0.09  -0.09     0.03   0.01  -0.01
    12   1     0.16  -0.09  -0.12     0.02   0.01   0.00    -0.01   0.01  -0.01
                     13                     14                     15
                      A                      A                      A
 Frequencies --   1004.2182              1011.6274              1035.3725
 Red. masses --      1.1042                 1.3463                 1.1406
 Frc consts  --      0.6561                 0.8118                 0.7204
 IR Inten    --     32.9951                47.2858                13.6511
  Atom  AN      X      Y      Z        X      Y      Z        X      Y      Z
     1   6     0.07  -0.05  -0.02     0.01  -0.01   0.00     0.02  -0.01  -0.01
     2   7     0.00  -0.01   0.01     0.00   0.00   0.00     0.00   0.00   0.00
     3   7     0.00   0.01   0.00     0.00   0.01   0.00     0.00  -0.01   0.00
     4   6    -0.01  -0.02   0.00    -0.02  -0.05   0.01     0.04   0.09  -0.01
     5   6    -0.01   0.01   0.01     0.00   0.00   0.00    -0.01   0.00   0.01
     6   1    -0.37   0.27   0.06    -0.05   0.05   0.03    -0.09   0.03  -0.03
     7   1     0.31  -0.18  -0.06     0.05  -0.06  -0.01     0.11  -0.01  -0.01
     8   6    -0.01  -0.01   0.00     0.07   0.15  -0.02    -0.01  -0.03   0.01
     9   1     0.09   0.18  -0.03    -0.31  -0.66   0.11    -0.16  -0.33   0.06
    10   1    -0.01   0.01  -0.01    -0.28  -0.56   0.08     0.15   0.31  -0.05
    11   1     0.09   0.18  -0.03    -0.01  -0.03   0.01    -0.38  -0.71   0.14
    12   1    -0.60   0.44   0.11    -0.10   0.08   0.05    -0.17   0.11   0.00
                     16                     17                     18
                      A                      A                      A
 Frequencies --   1091.3254              1128.6183              1317.3834
 Red. masses --      1.4297                 1.7940                 1.3222
 Frc consts  --      1.0033                 1.3464                 1.3520
 IR Inten    --      4.3741                10.4419                13.1765
  Atom  AN      X      Y      Z        X      Y      Z        X      Y      Z
     1   6     0.02   0.07  -0.09     0.00  -0.04   0.05    -0.02  -0.04   0.06
     2   7    -0.05  -0.03   0.03    -0.02   0.04  -0.01    -0.04   0.01  -0.02
     3   7     0.03   0.00  -0.02     0.03  -0.04  -0.12     0.03  -0.01   0.01
     4   6    -0.03  -0.01   0.04    -0.06   0.06   0.14     0.01  -0.02  -0.07
     5   6     0.01  -0.04   0.12     0.01   0.02  -0.03     0.04   0.07  -0.03
     6   1    -0.22  -0.20  -0.40     0.09   0.08   0.15     0.17   0.14   0.21
     7   1     0.31   0.47   0.10    -0.11  -0.14  -0.03    -0.04  -0.05  -0.02
     8   6     0.03  -0.01  -0.02     0.09  -0.06  -0.08     0.02   0.01   0.08
     9   1    -0.15   0.04  -0.01    -0.42   0.21  -0.06     0.27  -0.12   0.08
    10   1     0.11  -0.04   0.14     0.35  -0.12   0.42    -0.03   0.01  -0.03
    11   1    -0.13   0.15   0.04    -0.43   0.25   0.17    -0.54   0.27  -0.03
    12   1    -0.12  -0.11  -0.52     0.03   0.03   0.20    -0.29  -0.24  -0.52
                     19                     20                     21
                      A                      A                      A
 Frequencies --   1330.8275              1398.2263              1466.5681
 Red. masses --      1.2432                 9.0278                 1.2163
 Frc consts  --      1.2973                10.3989                 1.5413
 IR Inten    --      1.4994                11.5881                10.7258
  Atom  AN      X      Y      Z        X      Y      Z        X      Y      Z
     1   6    -0.02  -0.04   0.04    -0.03   0.00   0.01    -0.01  -0.01  -0.01
     2   7    -0.01  -0.01   0.00     0.41  -0.19   0.30    -0.02   0.01   0.00
     3   7     0.01   0.00   0.02    -0.45   0.21  -0.26     0.00   0.00  -0.01
     4   6    -0.01   0.01   0.07     0.06  -0.03   0.02     0.12  -0.05   0.04
     5   6     0.04   0.06  -0.03     0.04   0.03  -0.02     0.00   0.00   0.00
     6   1     0.15   0.13   0.19    -0.02   0.09   0.01     0.04   0.02   0.07
     7   1    -0.04  -0.03  -0.01    -0.03  -0.16  -0.03     0.06   0.07   0.01
     8   6    -0.02   0.00  -0.08     0.01  -0.01  -0.01     0.00   0.00   0.02
     9   1    -0.28   0.11  -0.08     0.00  -0.02  -0.01    -0.56   0.27   0.01
    10   1     0.02   0.00   0.01     0.04   0.01   0.02    -0.37   0.08  -0.61
    11   1     0.57  -0.31   0.03    -0.28   0.13   0.04    -0.22   0.12   0.07
    12   1    -0.29  -0.21  -0.50    -0.13  -0.22  -0.43     0.02   0.00   0.04
                     22                     23                     24
                      A                      A                      A
 Frequencies --   1479.5535              1673.1787              1689.0272
 Red. masses --      1.2372                 3.8446                 4.0589
 Frc consts  --      1.5957                 6.3415                 6.8223
 IR Inten    --      1.1710                26.4502                 2.7595
  Atom  AN      X      Y      Z        X      Y      Z        X      Y      Z
     1   6    -0.08  -0.07  -0.09    -0.20  -0.19  -0.19     0.06   0.05   0.06
     2   7     0.02   0.00   0.01     0.00   0.02  -0.01    -0.05   0.02  -0.01
     3   7    -0.01   0.00   0.00     0.01  -0.01   0.01     0.01  -0.01  -0.03
     4   6    -0.01   0.01  -0.01     0.08  -0.02   0.03     0.30  -0.12   0.15
     5   6     0.00   0.00   0.01     0.21   0.22   0.18    -0.06  -0.06  -0.05
     6   1     0.27   0.19   0.54    -0.12   0.02  -0.55     0.03  -0.01   0.13
     7   1     0.45   0.56   0.01    -0.24  -0.41   0.23     0.05   0.10  -0.06
     8   6     0.00   0.00   0.00    -0.08   0.03  -0.04    -0.29   0.11  -0.17
     9   1     0.08  -0.04   0.00     0.13  -0.06  -0.05     0.42  -0.24  -0.22
    10   1     0.04  -0.01   0.08     0.01   0.01   0.14     0.05   0.07   0.52
    11   1     0.01  -0.01  -0.01    -0.07   0.04   0.06    -0.22   0.15   0.25
    12   1     0.06   0.01   0.20     0.00  -0.09   0.30     0.01   0.02  -0.07
                     25                     26                     27
                      A                      A                      A
 Frequencies --   3148.9846              3164.3132              3173.8786
 Red. masses --      1.0818                 1.0727                 1.0662
 Frc consts  --      6.3206                 6.3286                 6.3277
 IR Inten    --      4.6249                 3.2705                 2.3453
  Atom  AN      X      Y      Z        X      Y      Z        X      Y      Z
     1   6     0.04   0.06  -0.03     0.00   0.00   0.00     0.02   0.02  -0.01
     2   7     0.00   0.00   0.00     0.00   0.00   0.00     0.00   0.00   0.00
     3   7     0.00   0.00   0.00     0.00   0.00   0.00     0.00   0.00   0.00
     4   6     0.00   0.00   0.01     0.01   0.01   0.07     0.00   0.00   0.00
     5   6     0.01   0.00   0.01     0.00   0.00   0.00    -0.04  -0.04  -0.03
     6   1    -0.07  -0.10   0.07     0.03   0.04  -0.03     0.34   0.53  -0.35
     7   1    -0.04   0.02  -0.25     0.01  -0.01   0.06     0.09  -0.06   0.62
     8   6     0.00   0.00   0.00     0.03  -0.01   0.01    -0.01   0.00   0.00
     9   1     0.00   0.00  -0.01    -0.02  -0.04  -0.33     0.00   0.01   0.07
    10   1    -0.01   0.01   0.01    -0.31   0.19   0.20     0.05  -0.03  -0.03
    11   1    -0.01  -0.01  -0.08    -0.11  -0.09  -0.82     0.00   0.00   0.02
    12   1    -0.44  -0.72   0.44     0.03   0.04  -0.03    -0.12  -0.20   0.12
                     28                     29                     30
                      A                      A                      A
 Frequencies --   3179.8629              3256.7615              3267.5234
 Red. masses --      1.0769                 1.1153                 1.1160
 Frc consts  --      6.4157                 6.9697                 7.0201
 IR Inten    --      4.3086                 6.1665                 2.5119
  Atom  AN      X      Y      Z        X      Y      Z        X      Y      Z
     1   6     0.00   0.00   0.00     0.00  -0.01   0.00     0.00   0.00   0.00
     2   7     0.00   0.00   0.00     0.00   0.00   0.00     0.00   0.00   0.00
     3   7     0.00   0.00   0.00     0.00   0.00   0.00     0.00   0.00   0.00
     4   6     0.01   0.00   0.05     0.00   0.00   0.00     0.00   0.00   0.01
     5   6     0.00   0.00   0.00    -0.02  -0.05   0.09     0.00   0.00   0.00
     6   1    -0.03  -0.04   0.03     0.33   0.50  -0.31     0.00   0.00   0.00
     7   1    -0.01   0.00  -0.04    -0.11   0.06  -0.72     0.00   0.00   0.00
     8   6    -0.05   0.02  -0.04     0.00   0.00   0.00    -0.04   0.03   0.08
     9   1     0.04   0.09   0.66     0.00   0.00   0.00    -0.06  -0.08  -0.65
    10   1     0.39  -0.23  -0.25     0.00   0.00   0.00     0.57  -0.33  -0.34
    11   1    -0.07  -0.06  -0.51     0.00   0.00   0.00    -0.02  -0.01  -0.10
    12   1     0.02   0.04  -0.02     0.05   0.08  -0.04     0.00   0.00   0.00

 -------------------
 - Thermochemistry -
 -------------------
 Temperature   298.150 Kelvin.  Pressure   1.00000 Atm.
 Atom     1 has atomic number  6 and mass  12.00000
 Atom     2 has atomic number  7 and mass  14.00307
 Atom     3 has atomic number  7 and mass  14.00307
 Atom     4 has atomic number  6 and mass  12.00000
 Atom     5 has atomic number  6 and mass  12.00000
 Atom     6 has atomic number  1 and mass   1.00783
 Atom     7 has atomic number  1 and mass   1.00783
 Atom     8 has atomic number  6 and mass  12.00000
 Atom     9 has atomic number  1 and mass   1.00783
 Atom    10 has atomic number  1 and mass   1.00783
 Atom    11 has atomic number  1 and mass   1.00783
 Atom    12 has atomic number  1 and mass   1.00783
 Molecular mass:    82.05310 amu.
 Principal axes and moments of inertia in atomic units:
                           1         2         3
     Eigenvalues --   188.63368 867.54256 992.84720
           X            0.83129  -0.33761   0.44155
           Y           -0.20835   0.54721   0.81065
           Z            0.51530   0.76588  -0.38455
 This molecule is an asymmetric top.
 Rotational symmetry number  1.
 Rotational temperatures (Kelvin)      0.45916     0.09984     0.08724
 Rotational constants (GHZ):           9.56744     2.08029     1.81774
    1 imaginary frequencies ignored.
 Zero-point vibrational energy     245242.7 (Joules/Mol)
                                   58.61442 (Kcal/Mol)
 Warning -- explicit consideration of   6 degrees of freedom as
           vibrations may cause significant error
 Vibrational temperatures:    196.47   306.37   393.71   531.29   733.66
          (Kelvin)            805.50  1074.32  1106.93  1155.29  1230.78
                             1363.26  1444.84  1455.50  1489.67  1570.17
                             1623.83  1895.42  1914.76  2011.73  2110.06
                             2128.74  2407.33  2430.13  4530.68  4552.74
                             4566.50  4575.11  4685.75  4701.23
 
 Zero-point correction=                           0.093408 (Hartree/Particle)
 Thermal correction to Energy=                    0.099208
 Thermal correction to Enthalpy=                  0.100152
 Thermal correction to Gibbs Free Energy=         0.064107
 Sum of electronic and zero-point Energies=           -263.851748
 Sum of electronic and thermal Energies=              -263.845948
 Sum of electronic and thermal Enthalpies=            -263.845004
 Sum of electronic and thermal Free Energies=         -263.881049
 
                     E (Thermal)             CV                S
                      KCal/Mol        Cal/Mol-Kelvin    Cal/Mol-Kelvin
 Total                   62.254             20.641             75.864
 Electronic               0.000              0.000              0.000
 Translational            0.889              2.981             39.128
 Rotational               0.889              2.981             26.588
 Vibrational             60.476             14.679             10.147
 Vibration     1          0.614              1.917              2.852
 Vibration     2          0.644              1.821              2.018
 Vibration     3          0.676              1.722              1.573
 Vibration     4          0.742              1.535              1.083
 Vibration     5          0.865              1.228              0.634
 Vibration     6          0.915              1.118              0.524
                       Q            Log10(Q)             Ln(Q)
 Total Bot       0.325837D-29        -29.487000        -67.896327
 Total V=0       0.300344D+14         13.477619         31.033364
 Vib (Bot)       0.772965D-42        -42.111840        -96.966096
 Vib (Bot)    1  0.149039D+01          0.173299          0.399035
 Vib (Bot)    2  0.931640D+00         -0.030752         -0.070808
 Vib (Bot)    3  0.704943D+00         -0.151846         -0.349639
 Vib (Bot)    4  0.493281D+00         -0.306905         -0.706676
 Vib (Bot)    5  0.319464D+00         -0.495578         -1.141112
 Vib (Bot)    6  0.277653D+00         -0.556497         -1.281382
 Vib (V=0)       0.712490D+01          0.852778          1.963595
 Vib (V=0)    1  0.207202D+01          0.316394          0.728525
 Vib (V=0)    2  0.155733D+01          0.192382          0.442975
 Vib (V=0)    3  0.136426D+01          0.134897          0.310612
 Vib (V=0)    4  0.120237D+01          0.080039          0.184296
 Vib (V=0)    5  0.109334D+01          0.038757          0.089241
 Vib (V=0)    6  0.107192D+01          0.030162          0.069451
 Electronic      0.100000D+01          0.000000          0.000000
 Translational   0.292144D+08          7.465598         17.190174
 Rotational      0.144292D+06          5.159243         11.879595
 -------------------------------------------------------------------
 Center     Atomic                   Forces (Hartrees/Bohr)
 Number     Number              X              Y              Z
 -------------------------------------------------------------------
      1        6          -0.000003507   -0.000000861   -0.000004072
      2        7           0.000000339   -0.000003406   -0.000000444
      3        7          -0.000000258   -0.000001999    0.000000350
      4        6           0.000000525    0.000001246   -0.000000047
      5        6           0.000002427    0.000001070    0.000005736
      6        1           0.000005412    0.000003686   -0.000003591
      7        1          -0.000000975   -0.000000926    0.000002162
      8        6           0.000000439    0.000002205   -0.000001974
      9        1           0.000001446    0.000000572   -0.000001321
     10        1           0.000001651    0.000003934   -0.000002243
     11        1           0.000000751    0.000001977   -0.000000404
     12        1          -0.000008249   -0.000007498    0.000005848
 -------------------------------------------------------------------
 Cartesian Forces:  Max     0.000008249 RMS     0.000003114

 GradGradGradGradGradGradGradGradGradGradGradGradGradGradGradGradGradGrad
 Berny optimization.
 Search for a local minimum.
 Step number   1 out of a maximum of    2
 All quantities printed in internal units (Hartrees-Bohrs-Radians)
 Second derivative matrix not updated -- analytic derivatives used.
 ITU=  0
     Eigenvalues ---   -0.00092   0.00162   0.00479   0.01005   0.01561
     Eigenvalues ---    0.02754   0.02901   0.04964   0.05251   0.07159
     Eigenvalues ---    0.07209   0.09810   0.11419   0.13169   0.14412
     Eigenvalues ---    0.16091   0.18720   0.24329   0.25023   0.25808
     Eigenvalues ---    0.36244   0.47902   0.49706   0.67704   0.70788
     Eigenvalues ---    0.90491   0.92989   1.03273   1.43752   1.47187
 Eigenvalue     1 is  -9.17D-04 should be greater than     0.000000 Eigenvector:
                          X6        X12       Y12       Y6        Y2
   1                    0.52809  -0.44082   0.35754  -0.35486   0.19850
                          X5        Y9        Y10       Y5        Y1
   1                    0.19424  -0.17813  -0.14430  -0.13939   0.13237
 Angle between quadratic step and forces=  83.60 degrees.
 Linear search not attempted -- first point.
 TrRot=  0.000015  0.000056 -0.000008 -0.000007 -0.000002 -0.000007
 Variable       Old X    -DE/DX   Delta X   Delta X   Delta X     New X
                                 (Linear)    (Quad)   (Total)
    X1       -0.04110   0.00000   0.00000  -0.00009  -0.00006  -0.04115
    Y1        1.56850   0.00000   0.00000   0.00020   0.00026   1.56876
    Z1        0.12112   0.00000   0.00000   0.00001   0.00000   0.12113
    X2        0.21914   0.00000   0.00000   0.00012   0.00015   0.21929
    Y2        1.62491   0.00000   0.00000   0.00032   0.00037   1.62528
    Z2        2.86596   0.00000   0.00000  -0.00003  -0.00004   2.86592
    X3        2.17429   0.00000   0.00000   0.00000   0.00002   2.17431
    Y3        0.74073   0.00000   0.00000   0.00009   0.00012   0.74084
    Z3        3.97624   0.00000   0.00000  -0.00003  -0.00003   3.97621
    X4        4.13212   0.00000   0.00000  -0.00009  -0.00009   4.13203
    Y4       -0.46365   0.00000   0.00000  -0.00006  -0.00006  -0.46371
    Z4        2.50375   0.00000   0.00000  -0.00003  -0.00003   2.50373
    X5       -1.55097   0.00000   0.00000   0.00029   0.00031  -1.55066
    Y5       -0.02344   0.00000   0.00000  -0.00020  -0.00012  -0.02356
    Z5       -1.10928   0.00001   0.00000   0.00008   0.00007  -1.10921
    X6       -2.53416   0.00001   0.00000   0.00084   0.00083  -2.53333
    Y6       -1.53211   0.00000   0.00000  -0.00053  -0.00044  -1.53254
    Z6       -0.13193   0.00000   0.00000   0.00008   0.00006  -0.13186
    X7       -1.85943   0.00000   0.00000   0.00000   0.00002  -1.85941
    Y7        0.15802   0.00000   0.00000  -0.00016  -0.00008   0.15794
    Z7       -3.12535   0.00000   0.00000   0.00013   0.00012  -3.12524
    X8        6.18459   0.00000   0.00000  -0.00014  -0.00015   6.18443
    Y8       -1.25827   0.00000   0.00000  -0.00019  -0.00022  -1.25849
    Z8        3.72901   0.00000   0.00000  -0.00003  -0.00003   3.72899
    X9        6.32208   0.00000   0.00000  -0.00014  -0.00015   6.32193
    Y9       -0.98705   0.00000   0.00000  -0.00028  -0.00031  -0.98736
    Z9        5.75569   0.00000   0.00000  -0.00002  -0.00002   5.75567
   X10        7.73825   0.00000   0.00000  -0.00014  -0.00016   7.73808
   Y10       -2.17470   0.00000   0.00000  -0.00015  -0.00020  -2.17490
   Z10        2.76077   0.00000   0.00000  -0.00007  -0.00006   2.76071
   X11        3.86262   0.00000   0.00000  -0.00005  -0.00004   3.86258
   Y11       -0.69964   0.00000   0.00000   0.00009   0.00010  -0.69955
   Z11        0.48212   0.00000   0.00000  -0.00005  -0.00005   0.48207
   X12        0.90535  -0.00001   0.00000  -0.00074  -0.00067   0.90468
   Y12        3.12890  -0.00001   0.00000   0.00054   0.00058   3.12948
   Z12       -0.82777   0.00001   0.00000   0.00000   0.00000  -0.82777
         Item               Value     Threshold  Converged?
 Maximum Force            0.000008     0.000450     YES
 RMS     Force            0.000003     0.000300     YES
 Maximum Displacement     0.000831     0.001800     YES
 RMS     Displacement     0.000255     0.001200     YES
 Predicted change in Energy=-2.467439D-09
 Optimization completed.
    -- Stationary point found.
 GradGradGradGradGradGradGradGradGradGradGradGradGradGradGradGradGradGrad

 1\1\GINC-GEORGE-MAIN\Freq\RB3LYP\3-21G\C4H6N2\GEORGE\23-Oct-2017\0\\# 
 B3lyp/3-21g nosym freq\\\0,1\C,-0.021747438,0.8300143319,0.0640962881\
 N,0.1159616572,0.8598665115,1.5166013519\N,1.1505834672,0.3919748155,2
 .1041346698\C,2.1866231251,-0.2453536887,1.3249290339\C,-0.8207368698,
 -0.0124019721,-0.5870040986\H,-1.3410182968,-0.8107559788,-0.069812969
 6\H,-0.9839668663,0.0836223368,-1.6538662241\C,3.2727418524,-0.6658461
 33,1.9733096586\H,3.3455002688,-0.5223249835,3.0457784331\H,4.09490341
 32,-1.1507998834,1.4609350513\H,2.0440121277,-0.3702346423,0.255124674
 5\H,0.4790905593,1.6557402861,-0.4380358689\\Version=AM64L-G09RevD.01\
 HF=-263.9451556\RMSD=6.549e-09\RMSF=3.114e-06\ZeroPoint=0.093408\Therm
 al=0.0992078\Dipole=0.7637423,-0.4398496,-0.9228903\DipoleDeriv=0.0982
 634,0.1574189,0.1059598,0.168909,0.2765277,-0.0568637,0.3417588,0.0103
 963,0.3108894,-0.2461512,0.0714551,0.2186265,-0.0340693,-0.3495296,-0.
 0324222,-0.2302367,-0.0792929,-0.1978989,0.2611988,-0.2565161,-0.10661
 69,-0.2172805,-0.0116021,0.0452093,-0.1929022,0.0870966,-0.256566,-0.2
 928097,0.1133466,-0.0513171,0.1406382,-0.0737068,0.0428715,0.1377989,-
 0.0016751,0.1810052,-0.2623766,0.1293332,-0.0396644,0.1257881,-0.19757
 52,-0.1344417,-0.1328382,-0.0381379,-0.1132036,0.1290361,-0.0886998,0.
 0300657,-0.1063049,0.0420623,0.029625,0.0314996,0.059474,0.0302296,0.0
 597065,-0.0281633,-0.0833521,-0.0368833,0.1011976,0.0518277,-0.0473884
 ,0.0315928,-0.059231,0.0378273,-0.1406465,-0.0364624,-0.125023,-0.1668
 107,0.0775644,0.1186522,0.0004325,0.1283574,0.0982484,0.0363908,0.0126
 653,0.0206199,0.153409,-0.049129,-0.0169508,-0.0241195,-0.0122661,0.01
 4866,0.0578174,0.0223795,0.0780546,0.0950619,-0.0168061,0.0416771,-0.0
 381717,0.0316599,0.0200371,0.046575,-0.0577505,0.0749061,0.1019976,0.0
 006693,0.0368234,-0.0574338,-0.0444159,0.0821537,-0.0983114,-0.0145332
 ,-0.0893548,0.0289683,0.0418955,-0.0878937,0.0498386,0.00144\Polar=73.
 6848292,-9.4371989,34.9995288,25.7511375,-1.8821169,56.8444117\PG=C01 
 [X(C4H6N2)]\NImag=1\\0.43675826,0.31211941,0.54533028,0.12630759,0.024
 90785,0.47418508,-0.07910082,-0.00172943,-0.01972542,0.41827156,0.0014
 2662,-0.07010350,0.01175696,-0.15342192,0.16554165,0.01577080,-0.00034
 384,-0.11324966,0.15707119,-0.05634437,0.30950987,-0.00791328,0.015485
 22,-0.02544636,-0.29696031,0.10715069,-0.17128575,0.43516341,0.0175394
 3,0.02635506,0.00139535,0.11052888,-0.11601980,0.08134342,-0.17185505,
 0.17061142,-0.04431686,0.00962684,-0.05734897,-0.10511167,0.04218535,-
 0.15436839,0.13564347,-0.03740100,0.36053704,-0.00537313,-0.00799994,0
 .01055766,-0.07097330,0.05541729,0.00233455,-0.07309920,0.00662563,0.0
 0075646,0.59785621,-0.00963913,-0.01853718,-0.00108573,0.05359671,0.01
 353509,-0.00676464,0.01209044,-0.07577391,-0.01077505,-0.19263738,0.22
 507004,-0.01008979,0.00939905,0.01289208,-0.02630804,0.01143487,0.0061
 7063,0.04904144,-0.03696768,-0.14122876,0.22207658,-0.01408780,0.67496
 737,-0.23725275,-0.19780214,-0.12744733,0.00755120,-0.01000296,-0.0152
 1184,0.00083170,0.00205263,0.00388806,-0.00049759,0.00091639,0.0027608
 9,0.39279994,-0.20069625,-0.26890799,-0.11902470,0.00308822,0.00607040
 ,-0.01729684,0.00124758,-0.00269043,0.00869464,0.00024541,0.00100777,-
 0.00247746,0.33288335,0.52770940,-0.13461117,-0.13260577,-0.20060067,-
 0.02408256,-0.02538705,-0.03833761,0.00384499,0.00331999,-0.00092914,-
 0.00193630,-0.00287892,0.00085810,0.12989762,0.00961374,0.68573361,-0.
 00385002,-0.01848415,0.01099879,-0.00592684,0.00472582,0.00244864,-0.0
 0090265,-0.00022566,-0.00168090,0.00056224,-0.00004863,-0.00123646,-0.
 10992097,-0.10873652,0.06184753,0.10911064,-0.01332863,-0.01292154,0.0
 0943329,0.00669699,-0.00156949,0.00221201,-0.00026377,0.00028841,-0.00
 007479,-0.00029108,-0.00008880,0.00121374,-0.10988220,-0.20134778,0.09
 988972,0.12537924,0.21142291,-0.01146712,-0.01511300,0.01122796,0.0028
 8342,-0.00036199,0.00048925,-0.00014019,0.00069267,0.00083129,-0.00032
 039,-0.00036425,0.00044059,0.06384685,0.10513637,-0.12520724,-0.065807
 30,-0.11087988,0.12291779,-0.00290089,-0.00015653,-0.02672363,0.008390
 95,-0.00683221,0.00068869,0.00088454,0.00102389,0.00025666,-0.00132500
 ,-0.00083099,0.00168776,-0.04723670,-0.00821498,-0.04253766,0.00468602
 ,-0.00117003,0.01432872,0.04270494,-0.00326719,0.00346871,-0.02339475,
 -0.00968075,0.00262452,0.00148525,-0.00067189,0.00021183,-0.00294497,0
 .00075838,-0.00013856,-0.00105078,-0.00765396,-0.05159867,0.03434438,0
 .00388923,0.00096009,0.02167196,0.01174486,0.04668396,0.00061085,0.003
 96467,-0.01378169,-0.00422115,0.00041567,0.00380761,0.00037467,-0.0000
 3249,-0.00166820,0.00012015,-0.00017404,-0.00031550,-0.04499185,0.0277
 6750,-0.33430999,-0.00363055,-0.00106233,-0.00957703,0.05054711,-0.029
 56712,0.35484971,0.00001936,0.00023085,0.00113209,0.00693367,-0.000082
 80,0.00548996,-0.05481969,0.02682199,-0.00878451,-0.37674378,0.1242805
 6,-0.18765706,0.00028224,-0.00059786,-0.00035126,-0.00012905,0.0000978
 0,0.00003324,0.00008220,-0.00013421,0.00000312,0.69961154,-0.00008655,
 0.00091973,-0.00122591,-0.00020930,0.00068808,-0.00291300,0.03013719,-
 0.00970911,0.00625595,0.12593765,-0.10620624,0.06244182,-0.00012661,0.
 00039814,0.00062813,0.00009187,-0.00003003,-0.00000506,0.00009631,0.00
 004756,0.00001577,-0.26354241,0.25644522,-0.00205008,-0.00029945,-0.00
 407695,0.01399518,-0.00737210,0.00143367,0.00557466,-0.00112569,0.0179
 1495,-0.17764191,0.05797205,-0.22953360,-0.00019810,0.00108537,0.00148
 071,0.00002143,-0.00008928,-0.00013841,0.00029189,-0.00000959,0.000145
 09,0.10459735,0.04310447,0.68267966,-0.00042090,-0.00073296,0.00017881
 ,0.00099810,0.00100566,0.00097421,0.00027437,-0.00523571,-0.00095266,0
 .00058473,-0.00146791,-0.03174197,0.00006353,0.00013286,0.00024591,0.0
 0002184,-0.00001325,-0.00005115,-0.00002322,0.00007188,0.00005673,-0.0
 5599027,0.00536106,-0.01554047,0.05036165,-0.00009684,-0.00107495,-0.0
 0004248,0.00102836,0.00228450,-0.00092896,-0.00444762,-0.00822289,0.00
 267450,0.00323675,0.00888496,0.01112343,0.00022476,-0.00023211,-0.0002
 2187,0.00001232,-0.00005003,-0.00002704,-0.00023847,0.00011288,0.00002
 860,0.00401344,-0.04880836,-0.04153876,-0.00796234,0.03660605,0.000133
 47,-0.00008041,-0.00054060,-0.00027167,-0.00032378,0.00076331,0.003571
 99,0.00012804,0.00004429,-0.00178475,-0.00324989,-0.01524722,-0.000107
 30,0.00024176,0.00011173,0.00006141,-0.00005063,-0.00002119,-0.0000247
 0,0.00003703,0.00002529,-0.02170799,-0.03857226,-0.33577591,0.02557483
 ,0.04296632,0.35801108,0.00033460,0.00077059,0.00021602,-0.00199212,-0
 .00111384,0.00121063,0.00088475,0.00571609,-0.00517466,-0.01464096,0.0
 1305530,0.01739208,-0.00006163,0.00000838,-0.00011722,-0.00002665,0.00
 002703,0.00003882,0.00005099,-0.00005559,-0.00003446,-0.21899993,0.103
 96708,0.09943997,0.00501671,-0.00118569,-0.00347938,0.23011321,0.00062
 046,0.00179482,-0.00030570,-0.00183105,-0.00415494,0.00045807,0.005636
 06,0.01150924,-0.00027718,0.00839223,0.00119440,-0.00731357,-0.0002010
 3,0.00012677,0.00026319,-0.00005062,0.00004625,0.00005025,0.00024571,-
 0.00011580,-0.00002696,0.10497492,-0.10068266,-0.06326825,0.00312621,0
 .00220031,-0.00034811,-0.11819563,0.09337884,0.00022780,-0.00043072,0.
 00041319,-0.00101140,0.00159312,0.00062851,-0.00191317,-0.00174363,-0.
 00195498,-0.01681458,0.00892360,0.01133528,0.00002317,-0.00012679,-0.0
 0015674,0.00002566,-0.00001543,-0.00001052,-0.00009367,0.00004465,0.00
 000577,0.10571147,-0.06593501,-0.12647430,0.02227705,-0.01277260,-0.00
 790888,-0.10923454,0.06961875,0.12358172,0.00118347,0.00063670,-0.0023
 9778,0.00477422,-0.00367029,0.00194150,-0.00094633,0.00920816,0.027440
 36,-0.05793418,0.00080337,-0.03694356,-0.00212491,-0.00037375,-0.00200
 989,0.00034806,-0.00035722,0.00000095,-0.00074815,0.00038006,0.0000081
 2,0.00016155,-0.00168369,-0.02864286,-0.00099113,0.00549013,-0.0019614
 3,-0.00064885,-0.00278837,0.00081951,0.05744667,-0.00034399,0.00003925
 ,0.00171545,-0.00453765,-0.00011585,-0.00055231,0.00466352,0.00284429,
 -0.01762602,0.00005534,-0.04951458,-0.03381135,0.00016608,-0.00012951,
 0.00068333,-0.00033306,0.00018507,-0.00001032,0.00033788,-0.00011932,-
 0.00001137,0.00380579,0.00704236,0.01191188,0.00576706,0.00818093,-0.0
 0068864,-0.00299885,-0.00518557,0.00079425,-0.00791994,0.03781455,-0.0
 0123986,-0.00009291,0.00015597,-0.00015168,0.00086886,0.00204122,-0.00
 114733,-0.00352184,-0.01879140,-0.03839205,-0.03156746,-0.32103576,-0.
 00143307,0.00102860,0.00025872,0.00049440,-0.00025577,-0.00017232,-0.0
 0026304,0.00039207,0.00008151,0.00137473,-0.00348321,-0.00839194,-0.00
 129705,-0.00145205,0.00059572,-0.00004175,0.00145514,0.00049522,0.0424
 5966,0.03674110,0.34447287,-0.10148389,-0.10233760,0.05234957,0.008033
 70,0.00539795,-0.00143256,-0.00339729,-0.00220028,-0.00196376,0.001583
 98,-0.00011872,0.00101812,-0.00443406,-0.01898643,0.00981001,0.0060273
 8,-0.00689489,-0.00334586,-0.00456568,0.00461918,0.00115727,-0.0004078
 3,0.00005741,0.00015293,0.00010459,-0.00007478,-0.00000448,-0.00003010
 ,0.00007112,-0.00001731,-0.00052041,0.00133782,-0.00036296,0.09908960,
 -0.10424734,-0.20636270,0.09587037,-0.00352903,0.00121934,-0.00035479,
 0.00082764,0.00059589,-0.00033829,0.00025972,0.00056701,0.00009572,-0.
 01057429,-0.01040598,0.01235113,-0.00621983,0.00310494,-0.00078971,0.0
 0399458,-0.00213720,-0.00131792,0.00013193,-0.00010468,-0.00037064,-0.
 00005255,0.00011872,-0.00005943,0.00000512,-0.00011166,0.00004982,0.00
 027483,-0.00104162,-0.00011253,0.11912923,0.21455794,0.06072436,0.1010
 6769,-0.10927573,0.00693380,0.02153446,-0.01888841,0.00188157,-0.00608
 714,-0.00303773,0.00104458,0.00405212,0.00069681,-0.01102710,-0.014642
 21,0.01109853,-0.00354266,-0.00032063,-0.00078016,0.00184187,-0.001008
 14,0.00073743,0.00015885,-0.00031169,0.00073703,0.00027576,0.00019091,
 -0.00005761,-0.00021551,-0.00030564,0.00004574,-0.00071456,0.00085400,
 0.00029019,-0.05736097,-0.10502372,0.11843392\\0.00000351,0.00000086,0
 .00000407,-0.00000034,0.00000341,0.00000044,0.00000026,0.00000200,-0.0
 0000035,-0.00000052,-0.00000125,0.00000005,-0.00000243,-0.00000107,-0.
 00000574,-0.00000541,-0.00000369,0.00000359,0.00000098,0.00000093,-0.0
 0000216,-0.00000044,-0.00000221,0.00000197,-0.00000145,-0.00000057,0.0
 0000132,-0.00000165,-0.00000393,0.00000224,-0.00000075,-0.00000198,0.0
 0000040,0.00000825,0.00000750,-0.00000585\\\@


 THERE'S SMALL CHOICE IN A BOWL OF ROTTEN APPLES.
                     SHAKESPEARE
 Job cpu time:       0 days  0 hours  1 minutes  1.5 seconds.
 File lengths (MBytes):  RWF=      5 Int=      0 D2E=      0 Chk=      1 Scr=     11
 Normal termination of Gaussian 09 at Mon Oct 23 21:34:32 2017.
