                                                                        
Freq      RB3LYP                                                      3-21G               
Number of atoms                            I                6
Info1-9                                    I   N=           9
          19          19           0           0           0         100
           6          18        -502
Charge                                     I                0
Multiplicity                               I                1
Number of electrons                        I               16
Number of alpha electrons                  I                8
Number of beta electrons                   I                8
Number of basis functions                  I               26
Number of independent functions            I               26
Number of point charges in /Mol/           I                0
Number of translation vectors              I                0
Atomic numbers                             I   N=           6
           6           6           1           1           1           1
Nuclear charges                            R   N=           6
  6.00000000E+00  6.00000000E+00  1.00000000E+00  1.00000000E+00  1.00000000E+00
  1.00000000E+00
Current cartesian coordinates              R   N=          18
 -1.26644177E+00  1.83552830E-01 -1.05915227E-05  1.26643659E+00  1.83557900E-01
  2.40661919E-06 -2.74348267E+00  1.50740566E+00  1.66549538E-05 -2.04084719E+00
 -1.69096044E+00 -1.66372464E-05  2.74348521E+00  1.50739897E+00 -3.21341105E-06
  2.04084963E+00 -1.69095508E+00  8.26203944E-06
Force Field                                I                0
Int Atom Types                             I   N=           6
           0           0           0           0           0           0
MM charges                                 R   N=           6
  0.00000000E+00  0.00000000E+00  0.00000000E+00  0.00000000E+00  0.00000000E+00
  0.00000000E+00
Integer atomic weights                     I   N=           6
          12          12           1           1           1           1
Real atomic weights                        R   N=           6
  1.20000000E+01  1.20000000E+01  1.00782504E+00  1.00782504E+00  1.00782504E+00
  1.00782504E+00
Atom fragment info                         I   N=           6
           0           0           0           0           0           0
Atom residue num                           I   N=           6
           0           0           0           0           0           0
Nuclear spins                              I   N=           6
           0           0           1           1           1           1
Nuclear ZEff                               R   N=           6
 -3.60000000E+00 -3.60000000E+00 -1.00000000E+00 -1.00000000E+00 -1.00000000E+00
 -1.00000000E+00
Nuclear ZNuc                               R   N=           6
  6.00000000E+00  6.00000000E+00  1.00000000E+00  1.00000000E+00  1.00000000E+00
  1.00000000E+00
Nuclear QMom                               R   N=           6
  0.00000000E+00  0.00000000E+00  0.00000000E+00  0.00000000E+00  0.00000000E+00
  0.00000000E+00
Nuclear GFac                               R   N=           6
  0.00000000E+00  0.00000000E+00  2.79284600E+00  2.79284600E+00  2.79284600E+00
  2.79284600E+00
MicOpt                                     I   N=           6
          -1          -1          -1          -1          -1          -1
Number of contracted shells                I               14
Number of primitive shells                 I               24
Pure/Cartesian d shells                    I                1
Pure/Cartesian f shells                    I                0
Highest angular momentum                   I                1
Largest degree of contraction              I                3
Shell types                                I   N=          14
           0          -1          -1           0          -1          -1
           0           0           0           0           0           0
           0           0
Number of primitives per shell             I   N=          14
           3           2           1           3           2           1
           2           1           2           1           2           1
           2           1
Shell to atom map                          I   N=          14
           1           1           1           2           2           2
           3           3           4           4           5           5
           6           6
Primitive exponents                        R   N=          24
  1.72256000E+02  2.59109000E+01  5.53335000E+00  3.66498000E+00  7.70545000E-01
  1.95857000E-01  1.72256000E+02  2.59109000E+01  5.53335000E+00  3.66498000E+00
  7.70545000E-01  1.95857000E-01  5.44717800E+00  8.24547240E-01  1.83191580E-01
  5.44717800E+00  8.24547240E-01  1.83191580E-01  5.44717800E+00  8.24547240E-01
  1.83191580E-01  5.44717800E+00  8.24547240E-01  1.83191580E-01
Contraction coefficients                   R   N=          24
  6.17669074E-02  3.58794043E-01  7.00713084E-01 -3.95895162E-01  1.21583436E+00
  1.00000000E+00  6.17669074E-02  3.58794043E-01  7.00713084E-01 -3.95895162E-01
  1.21583436E+00  1.00000000E+00  1.56284979E-01  9.04690877E-01  1.00000000E+00
  1.56284979E-01  9.04690877E-01  1.00000000E+00  1.56284979E-01  9.04690877E-01
  1.00000000E+00  1.56284979E-01  9.04690877E-01  1.00000000E+00
P(S=P) Contraction coefficients            R   N=          24
  0.00000000E+00  0.00000000E+00  0.00000000E+00  2.36459947E-01  8.60618806E-01
  1.00000000E+00  0.00000000E+00  0.00000000E+00  0.00000000E+00  2.36459947E-01
  8.60618806E-01  1.00000000E+00  0.00000000E+00  0.00000000E+00  0.00000000E+00
  0.00000000E+00  0.00000000E+00  0.00000000E+00  0.00000000E+00  0.00000000E+00
  0.00000000E+00  0.00000000E+00  0.00000000E+00  0.00000000E+00
Coordinates of each shell                  R   N=          42
 -1.26644177E+00  1.83552830E-01 -1.05915227E-05 -1.26644177E+00  1.83552830E-01
 -1.05915227E-05 -1.26644177E+00  1.83552830E-01 -1.05915227E-05  1.26643659E+00
  1.83557900E-01  2.40661919E-06  1.26643659E+00  1.83557900E-01  2.40661919E-06
  1.26643659E+00  1.83557900E-01  2.40661919E-06 -2.74348267E+00  1.50740566E+00
  1.66549538E-05 -2.74348267E+00  1.50740566E+00  1.66549538E-05 -2.04084719E+00
 -1.69096044E+00 -1.66372464E-05 -2.04084719E+00 -1.69096044E+00 -1.66372464E-05
  2.74348521E+00  1.50739897E+00 -3.21341105E-06  2.74348521E+00  1.50739897E+00
 -3.21341105E-06  2.04084963E+00 -1.69095508E+00  8.26203944E-06  2.04084963E+00
 -1.69095508E+00  8.26203944E-06
Constraint Structure                       R   N=          18
 -1.26644177E+00  1.83552830E-01 -1.05915227E-05  1.26643659E+00  1.83557900E-01
  2.40661919E-06 -2.74348267E+00  1.50740566E+00  1.66549538E-05 -2.04084719E+00
 -1.69096044E+00 -1.66372464E-05  2.74348521E+00  1.50739897E+00 -3.21341105E-06
  2.04084963E+00 -1.69095508E+00  8.26203944E-06
Num ILSW                                   I              100
ILSW                                       I   N=         100
           0           1           0           0           2           0
           0           0           0           0         402          -1
           0           0           0           0           2           0
           0           0           1           0           1           0
           1           1           0           0           0           0
           0           0      100000           0          -1           0
           0           0           0           0           0           0
           0           0           0           1           0           0
           0           0           1           0           0           0
           0           0           4          41           0           0
           0           0           5           0           0           0
           0           0           0           0           0           0
           0           0           0           0           0           0
           0           0           0           0           0           0
           0           0           0           0           0           0
           0           0           0           0           0           0
           0           0           0           0
Num RLSW                                   I               41
RLSW                                       R   N=          41
  8.00000000E-01  7.20000000E-01  1.00000000E+00  8.10000000E-01  2.00000000E-01
  0.00000000E+00  0.00000000E+00  1.00000000E+00  0.00000000E+00  0.00000000E+00
  0.00000000E+00  0.00000000E+00  1.00000000E+00  0.00000000E+00  0.00000000E+00
  0.00000000E+00  0.00000000E+00  1.00000000E+00  0.00000000E+00  0.00000000E+00
  0.00000000E+00  0.00000000E+00  1.00000000E+00  0.00000000E+00  0.00000000E+00
  0.00000000E+00  0.00000000E+00  1.00000000E+00  0.00000000E+00  0.00000000E+00
  0.00000000E+00  0.00000000E+00  1.00000000E+00  0.00000000E+00  0.00000000E+00
  0.00000000E+00  0.00000000E+00  0.00000000E+00  1.00000000E+00  1.00000000E+00
  0.00000000E+00
MxBond                                     I                3
NBond                                      I   N=           6
           3           3           1           1           1           1
IBond                                      I   N=          18
           2           3           4           1           5           6
           1           0           0           1           0           0
           2           0           0           2           0           0
RBond                                      R   N=          18
  2.00000000E+00  1.00000000E+00  1.00000000E+00  2.00000000E+00  1.00000000E+00
  1.00000000E+00  1.00000000E+00  0.00000000E+00  0.00000000E+00  1.00000000E+00
  0.00000000E+00  0.00000000E+00  1.00000000E+00  0.00000000E+00  0.00000000E+00
  1.00000000E+00  0.00000000E+00  0.00000000E+00
Virial Ratio                               R      2.008402278670300E+00
SCF Energy                                 R     -7.814521686514576E+01
Total Energy                               R     -7.814521686514576E+01
RMS Force                                  R      1.651400351921351E-02
RMS Density                                R      2.830135464538713E-09
External E-field                           R   N=          35
  0.00000000E+00  0.00000000E+00  0.00000000E+00  0.00000000E+00  0.00000000E+00
  0.00000000E+00  0.00000000E+00  0.00000000E+00  0.00000000E+00  0.00000000E+00
  0.00000000E+00  0.00000000E+00  0.00000000E+00  0.00000000E+00  0.00000000E+00
  0.00000000E+00  0.00000000E+00  0.00000000E+00  0.00000000E+00  0.00000000E+00
  0.00000000E+00  0.00000000E+00  0.00000000E+00  0.00000000E+00  0.00000000E+00
  0.00000000E+00  0.00000000E+00  0.00000000E+00  0.00000000E+00  0.00000000E+00
  0.00000000E+00  0.00000000E+00  0.00000000E+00  0.00000000E+00  0.00000000E+00
IOpCl                                      I                0
IROHF                                      I                0
Alpha Orbital Energies                     R   N=          26
 -1.01199325E+01 -1.01188951E+01 -7.61907792E-01 -5.94100296E-01 -4.70816984E-01
 -4.34190484E-01 -3.43629575E-01 -2.70262703E-01  1.76382161E-02  1.37460123E-01
  1.75983620E-01  1.82143015E-01  2.79398962E-01  3.74243139E-01  6.59050617E-01
  7.31389178E-01  7.43279256E-01  7.98865568E-01  8.14731678E-01  9.20677763E-01
  1.03373741E+00  1.06212025E+00  1.10362445E+00  1.27723370E+00  1.41127916E+00
  1.73339267E+00
Alpha MO coefficients                      R   N=         676
  6.96907860E-01  7.82568379E-02  2.20158855E-03 -7.33014860E-04  3.04520561E-08
 -7.46074028E-02 -1.80382470E-02  6.44022608E-03 -1.41412205E-07 -6.96842003E-01
 -7.82500062E-02  2.20179513E-03  7.32979078E-04  2.00856297E-08  7.46038961E-02
 -1.80387383E-02 -6.44009581E-03 -9.58222531E-08 -1.79245975E-03  5.99571826E-03
 -8.48700931E-06  1.17067762E-02  1.79222284E-03 -5.99468337E-03  8.29855824E-06
 -1.17056424E-02  6.96725398E-01  7.21382768E-02 -2.31944108E-03 -5.56374977E-04
  1.82926071E-08 -3.65118080E-02  5.43103396E-03  2.51499954E-03 -8.82133105E-08
  6.96791262E-01  7.21456636E-02  2.31925036E-03 -5.56443230E-04 -1.97697677E-09
 -3.65187478E-02 -5.42943783E-03  2.51566152E-03  3.72396557E-08 -2.78058483E-03
  1.06523376E-02 -1.84090480E-03  1.17248085E-02 -2.78076618E-03  1.06529059E-02
 -1.84088140E-03  1.17259030E-02 -1.67410817E-01  1.80965899E-01  9.59787175E-02
 -1.84579635E-02  1.04488708E-06  3.71154790E-01  1.20439540E-02 -2.01856438E-02
  6.22603656E-07 -1.67410794E-01  1.80965892E-01 -9.59784339E-02 -1.84584209E-02
 -6.30575191E-07  3.71154188E-01 -1.20432971E-02 -2.01860168E-02 -3.20799753E-07
  7.60341101E-02  8.10195630E-03  8.85248095E-02  3.93959785E-03  7.60342226E-02
  8.10192491E-03  8.85245796E-02  3.93952689E-03 -1.29406850E-01  1.35248323E-01
 -1.50951690E-01 -3.36503272E-03  1.05785337E-06  3.99144345E-01 -7.23947696E-02
 -1.02841215E-02  8.31696556E-07  1.29406810E-01 -1.35248247E-01 -1.50954288E-01
  3.36445607E-03  1.77235812E-07 -3.99144787E-01 -7.23963221E-02  1.02840443E-02
  2.62074113E-08  1.54101440E-01  7.02010807E-02  1.22049684E-01  4.74377139E-02
 -1.54103052E-01 -7.02017882E-02 -1.22049704E-01 -4.74377408E-02 -9.92494302E-03
  7.51211591E-03 -1.86350704E-01  2.41420301E-01  1.84909335E-06  5.89360876E-02
 -1.12468246E-01  1.54540095E-01  1.36444149E-06 -9.92432500E-03  7.51154840E-03
  1.86349528E-01  2.41419070E-01  5.71571582E-07  5.89331321E-02  1.12468098E-01
  1.54539156E-01  1.66388586E-07  1.88366902E-01  1.37537918E-01 -8.30703239E-02
 -6.47893713E-02  1.88365132E-01  1.37536513E-01 -8.30699637E-02 -6.47893234E-02
 -1.95454620E-02  2.93050443E-02  3.16484007E-01  1.62757428E-01  8.09596675E-07
  2.96933835E-02  1.75512226E-01  1.07629994E-01  3.11654219E-07 -1.95465629E-02
  2.93061810E-02 -3.16484020E-01  1.62753212E-01 -1.61784013E-06  2.96976779E-02
 -1.75512751E-01  1.07627035E-01 -8.25735713E-07 -5.42595243E-02 -5.07550221E-02
 -1.60175758E-01 -1.50535303E-01 -5.42614868E-02 -5.07562968E-02 -1.60172420E-01
 -1.50532870E-01 -6.65857101E-03  6.52770000E-03  2.48393105E-02 -2.70409065E-01
 -7.41665004E-06  4.53437039E-02  1.23474465E-02 -2.09664088E-01 -6.09876153E-06
  6.65798166E-03 -6.52692655E-03  2.48358520E-02  2.70412583E-01 -5.68549885E-06
 -4.53420694E-02  1.23450457E-02  2.09666894E-01 -4.83797142E-06 -1.70967832E-01
 -1.82943782E-01  2.03132621E-01  2.07343897E-01  1.70967868E-01  1.82943835E-01
 -2.03135267E-01 -2.07347552E-01  8.23118995E-07 -9.13637679E-07  7.91400671E-07
 -6.73920442E-06  3.46263472E-01 -2.36736362E-06  5.52386973E-07 -5.97119160E-06
  3.56012545E-01 -4.42720026E-07  5.97748076E-07 -1.74295693E-06  4.94864100E-06
  3.46263405E-01  5.24623969E-07 -1.42991225E-06  4.06048755E-06  3.56012538E-01
 -2.71007292E-06 -4.15079634E-06  3.47394789E-06  4.08489053E-06  2.59686867E-06
  3.66294099E-06 -3.56175770E-06 -4.52368112E-06  1.21309528E-06 -7.08153834E-07
  1.60447756E-06 -4.26313157E-06  3.64426410E-01 -9.66060663E-06  3.96280502E-06
 -9.60179938E-06  6.72470245E-01  7.24251479E-08  3.96275685E-07 -5.42224695E-07
 -1.82384251E-06 -3.64426423E-01 -3.72541730E-06  9.85350978E-07 -4.22182601E-06
 -6.72470287E-01  3.56260620E-06  1.07915463E-05 -2.78710155E-07 -2.81350517E-06
  2.14446086E-06  5.88404539E-06 -1.34241639E-06 -5.45007658E-06  6.24354420E-02
 -4.04966060E-02  5.58256511E-02  2.03627141E-01  2.53084201E-06 -8.37254118E-01
  2.83092402E-01  5.99767806E-01  6.45334626E-06  6.24344860E-02 -4.04959594E-02
 -5.58265132E-02  2.03629284E-01 -2.14877165E-06 -8.37242938E-01 -2.83095017E-01
  5.99771920E-01 -5.74295948E-06 -4.88754239E-02 -5.01657878E-02  8.24407078E-02
  1.27260365E+00 -4.88765638E-02 -5.01714636E-02  8.24406762E-02  1.27260292E+00
  6.96887653E-02 -2.82121796E-02  1.78330087E-01 -1.36657613E-01 -5.05388581E-06
 -1.14302755E+00  5.89056352E-01 -3.87723925E-01 -1.82087794E-05  6.96904443E-02
 -2.82134812E-02 -1.78328549E-01 -1.36658559E-01  2.95095735E-06 -1.14304615E+00
 -5.89058355E-01 -3.87722430E-01  1.17195469E-05  7.90903902E-02  1.43056164E+00
 -3.20468089E-02  9.16769579E-02  7.90906037E-02  1.43057351E+00 -3.20476597E-02
  9.16826923E-02 -1.31101920E-01  7.90446879E-02 -7.56178514E-02  3.82606188E-02
  2.95313324E-06  1.62854113E+00 -2.55082862E-01  1.67173184E-01  1.00865274E-05
  1.31101484E-01 -7.90440696E-02 -7.56178242E-02 -3.82571277E-02 -2.71071201E-07
 -1.62853757E+00 -2.55081839E-01 -1.67163821E-01 -2.18252952E-06 -4.14550193E-02
 -1.16745343E+00 -3.79195638E-02 -7.18990920E-01  4.14540079E-02  1.16744134E+00
  3.79196809E-02  7.18997687E-01  4.25662970E-03  1.07361829E-02  6.22786796E-02
  3.04492877E-01  2.84491596E-06 -2.13176829E-01  9.37370546E-02  1.36766429E+00
  8.55097980E-06 -4.25640597E-03 -1.07358046E-02  6.22778308E-02 -3.04490401E-01
  1.15875897E-06  2.13170795E-01  9.37399073E-02 -1.36765600E+00  1.19925341E-06
  1.24890498E-02 -9.12916383E-01  1.49695179E-02  1.49326187E+00 -1.24870769E-02
  9.12908452E-01 -1.49704122E-02 -1.49324965E+00 -9.51529580E-02  1.46732320E-03
  2.29982012E-01 -5.56892320E-02 -1.83179272E-06  2.43731645E+00  2.70730083E+00
 -3.17913343E-01  5.91266776E-06  9.51526731E-02 -1.46719031E-03  2.29984892E-01
  5.56908171E-02 -1.08295181E-07 -2.43730399E+00  2.70730534E+00  3.17925379E-01
  1.37820712E-05 -3.93013636E-02  1.12525099E+00  9.55787421E-02  1.72359494E-02
  3.93057115E-02 -1.12527372E+00 -9.55771181E-02 -1.72356111E-02 -5.36450308E-03
 -1.38389505E-01 -4.06773581E-01 -3.96513407E-01 -4.25566858E-06 -2.71322798E-01
  6.11607324E-01  4.73900194E-01  6.98659861E-06 -5.36487870E-03 -1.38391404E-01
  4.06767011E-01 -3.96518440E-01 -9.95276069E-07 -2.71330963E-01 -6.11592545E-01
  4.73900946E-01 -2.83076076E-06 -3.03478114E-01  3.70753444E-01  2.98850464E-01
  2.73998160E-02 -3.03486670E-01  3.70763225E-01  2.98849363E-01  2.73922119E-02
  6.45796690E-07 -1.11420476E-06  1.32004991E-06 -1.16302691E-05  7.53732759E-01
  3.79140483E-06  6.38652789E-06  1.38351932E-05 -5.92873583E-01 -1.03512673E-07
 -7.56200393E-08 -5.36611173E-06  1.51368435E-06  7.53732491E-01  1.08828409E-07
  1.66129615E-05 -5.20393794E-07 -5.92873211E-01  1.23006921E-06  2.53733844E-06
  4.90318457E-06  2.92590069E-06 -6.15459641E-06 -4.52996984E-06 -9.33912205E-08
 -1.35855782E-06  1.02711378E-02  2.46732351E-02  5.30896776E-01 -2.36975702E-01
  8.68747545E-06  6.44195937E-01 -1.06065717E+00  4.89179116E-01 -3.29561942E-06
  1.02730878E-02  2.46729180E-02 -5.30884559E-01 -2.36976285E-01 -2.08578102E-05
  6.44175125E-01  1.06067519E+00  4.89173875E-01  1.69902033E-05 -3.81215487E-01
 -4.19917242E-01  1.65034959E-01 -7.63009052E-02 -3.81205460E-01 -4.19931461E-01
  1.65039739E-01 -7.63092357E-02  8.99512230E-07  2.56807884E-06  2.71593943E-06
  6.43726364E-07 -7.68572775E-01  1.85934463E-05 -7.37275496E-06  5.76289294E-06
  9.98234824E-01 -1.01890127E-06  1.95722147E-06 -2.16865712E-05 -1.46760422E-06
  7.68573062E-01  9.02182923E-06  4.12965930E-05  9.32643437E-06 -9.98235019E-01
  1.21194193E-06 -1.42197801E-05  1.05884946E-05 -2.44860122E-06 -1.43095156E-05
 -1.13560456E-05  2.27022423E-06 -5.95278517E-06  7.21908781E-02 -3.85542087E-03
 -5.53501432E-01 -1.54097338E-01  4.08393574E-06  2.31671966E-01  1.18044500E+00
  3.02177433E-01 -1.14167386E-05 -7.21903102E-02  3.86275471E-03 -5.53519002E-01
  1.54098097E-01 -1.76767725E-05 -2.31655821E-01  1.18047662E+00 -3.02171184E-01
  2.43679675E-05  5.15502948E-01 -2.56998781E-02  3.46185207E-01  2.52787354E-01
 -5.15498211E-01  2.56781784E-02 -3.46172794E-01 -2.52798850E-01  3.72250911E-02
  2.90208951E-01  1.46820713E-01  4.92323114E-02  1.84343079E-06 -4.66649340E-01
  1.83148074E-01  4.90733914E-02 -8.11078996E-06  3.72258393E-02  2.90208875E-01
 -1.46807857E-01  4.92280220E-02 -3.91664253E-06 -4.66624177E-01 -1.83202402E-01
  4.90854432E-02  7.72396336E-06  4.94919134E-01 -1.17145330E-01  7.50030851E-01
 -3.07957189E-01  4.94923524E-01 -1.17130830E-01  7.50039276E-01 -3.07945388E-01
  1.01821475E-02 -2.47558812E-04 -1.06116417E-01  7.85042695E-01  8.32393075E-06
  3.84521794E-01  5.80277195E-01 -1.93039851E+00 -1.55786966E-05 -1.01816998E-02
  2.52786191E-04 -1.06122503E-01 -7.85056796E-01  2.07138532E-06 -3.84515278E-01
  5.80289019E-01  1.93041480E+00  1.12494317E-06 -1.19254454E-01  1.11981981E+00
  3.92123370E-01 -1.22533004E+00  1.19270116E-01 -1.11984930E+00 -3.92135071E-01
  1.22534894E+00 -1.18755033E-02 -1.06603878E-01 -9.72834059E-02  6.41320048E-01
  6.70325617E-06  1.17250960E-01  1.27311961E-01 -8.34410176E-01 -9.24805535E-06
 -1.18750144E-02 -1.06606502E-01  9.72675073E-02  6.41298201E-01 -1.77079078E-06
  1.17228701E-01 -1.27258357E-01 -8.34355054E-01  3.73283454E-06 -5.77399318E-01
  9.47182474E-01  3.93305228E-01 -9.19584385E-01 -5.77385608E-01  9.47128457E-01
  3.93303305E-01 -9.19567846E-01 -1.75987832E-02  3.51922179E-02 -7.12008688E-01
  7.58293348E-03  2.29917264E-06  4.26039573E-01  1.27681862E+00  4.97322510E-02
  9.09657309E-08  1.75993006E-02 -3.51871793E-02 -7.12012202E-01 -7.59643544E-03
 -6.72050448E-07 -4.26046157E-01  1.27682175E+00 -4.97120787E-02  3.60951238E-06
 -6.19860703E-01  8.98332625E-01 -3.32216226E-01  5.76684175E-01  6.19875034E-01
 -8.98353151E-01  3.32212827E-01 -5.76665769E-01  4.50628157E-02 -3.20203588E-01
  5.58207322E-02 -2.21152413E-01 -3.86398018E-06 -5.37846090E-01 -1.53106554E+00
  1.93624706E+00  1.29196070E-05 -4.50628682E-02  3.20212488E-01  5.58263388E-02
  2.21151805E-01  3.90248710E-07  5.37813872E-01 -1.53108248E+00 -1.93624169E+00
 -8.51779801E-06 -5.18027927E-01 -9.88058375E-01  7.44227221E-01 -9.02684941E-02
  5.18024165E-01  9.88074289E-01 -7.44219937E-01  9.02796276E-02  3.34685902E-02
 -1.21567985E+00  1.50513870E-01  2.74237453E-02 -2.20073100E-06  1.74084445E+00
 -3.79657079E-01 -1.25488140E-01  5.99824129E-06  3.34682612E-02 -1.21567713E+00
 -1.50515246E-01  2.74245017E-02  2.07487398E-07  1.74084268E+00  3.79652723E-01
 -1.25501227E-01 -2.16000026E-06  2.40674619E-01 -7.30126245E-01  1.19520918E-01
 -6.72230689E-01  2.40679332E-01 -7.30121742E-01  1.19514217E-01 -6.72227105E-01
 -1.34492587E-02 -1.38430430E+00 -5.99180016E-02  1.08461531E-01  1.42654431E-07
  4.20176782E+00  1.64633603E+00 -9.97076840E-01  5.12728612E-06  1.34490537E-02
  1.38430343E+00 -5.99184336E-02 -1.08461704E-01 -3.12628791E-07 -4.20175895E+00
  1.64633840E+00  9.97082092E-01  8.27335913E-06  1.35002189E-01  6.30290900E-02
 -3.32495969E-01 -6.20675122E-01 -1.35004842E-01 -6.30322774E-02  3.32495415E-01
  6.20670797E-01
Total SCF Density                          R   N=         351
  2.03280845E+00  1.12619727E-01  1.26653315E-01 -2.23420430E-03  9.98942818E-03
  3.35028513E-01 -2.29935456E-03  1.85033068E-03 -2.91886460E-03  3.16495343E-01
  4.47451480E-08  1.74147026E-08 -1.15839987E-07  4.54573854E-07  2.39796785E-01
 -3.85375522E-01  2.28572832E-01 -5.03342291E-02 -2.63810913E-03 -4.31801499E-07
  6.20765348E-01 -7.66281766E-03 -8.50487503E-03  1.77687635E-01 -3.78711263E-03
 -6.12477248E-08 -4.82706188E-02  9.86940822E-02  1.74184455E-02 -2.82400664E-03
 -6.40073096E-04  2.23845679E-01 -3.42866229E-07 -1.87444442E-02 -1.36079905E-03
  1.59973822E-01 -1.15706508E-07 -2.75937822E-07 -1.82535092E-07 -7.68181891E-07
  2.46548280E-01 -9.05724286E-07 -5.60895738E-08 -1.24995419E-06  2.53489864E-01
  2.31079258E-02 -3.53296516E-02 -8.58475312E-02 -9.19987586E-03 -5.66719238E-07
  3.04034688E-02  5.47432171E-03 -1.14407465E-02 -3.54759859E-07  2.03280845E+00
 -3.53296416E-02  2.88201265E-02  9.03164894E-02  1.09605007E-02  6.75909928E-07
  3.48071839E-02  3.59846411E-02  6.19803305E-03  5.53760537E-07  1.12619666E-01
  1.26653358E-01  8.58472452E-02 -9.03162073E-02 -2.41394410E-01 -2.19215546E-02
 -1.91846507E-06 -1.86825952E-01 -1.32906679E-01 -1.39241077E-02 -1.60434732E-06
  2.23436238E-03 -9.98950593E-03  3.35028770E-01 -9.19966443E-03  1.09602848E-02
  2.19209113E-02  2.39598008E-02  5.40866501E-07  5.15602009E-02  8.53995771E-03
 -3.05687758E-03  9.67945390E-07 -2.29951627E-03  1.85052213E-03  2.91904083E-03
  3.16495240E-01  8.88143808E-07 -9.70604455E-07 -1.14590222E-06 -1.82085371E-06
  2.39796738E-01 -2.51322121E-06 -4.95925968E-07 -1.90065474E-06  2.46548232E-01
 -1.04148750E-07  1.22340048E-07 -1.84774031E-07  1.26068007E-07  2.39796692E-01
  3.04037941E-02  3.48069569E-02  1.86827554E-01  5.15601919E-02  1.23628352E-06
 -4.69884627E-02  5.96928831E-02  3.76239698E-02  8.89511096E-07 -3.85375179E-01
  2.28572812E-01  5.03331955E-02 -2.63782671E-03  2.43752126E-07  6.20764644E-01
 -5.47473910E-03 -3.59843660E-02 -1.32907038E-01 -8.53995991E-03 -1.22126601E-06
 -5.96916312E-02 -7.58186553E-02 -6.48022552E-03 -1.10055893E-06  7.66252144E-03
  8.50499305E-03  1.77688160E-01  3.78692107E-03 -4.45334980E-07  4.82704734E-02
  9.86946849E-02 -1.14407813E-02  6.19797335E-03  1.39238011E-02 -3.05706438E-03
  4.27002325E-07  3.76242527E-02  6.48032700E-03 -1.64533371E-02  8.15904570E-07
  1.74186512E-02 -2.82392520E-03  6.39948993E-04  2.23845986E-01  2.85122787E-07
 -1.87445074E-02  1.36049441E-03  1.59974352E-01  6.98446220E-07 -8.78234471E-07
 -3.31610857E-07 -2.35870468E-06  2.46548275E-01 -2.35942347E-06 -6.11006239E-08
 -2.33789573E-06  2.53489859E-01 -5.10360159E-08  3.40040042E-07 -8.43243893E-07
  7.30453605E-07  2.46548228E-01  5.06768663E-07 -8.03317249E-07  7.51040153E-07
  2.53489854E-01 -7.10555994E-02  6.59392264E-02 -1.44966026E-01  1.61913150E-01
  1.75269463E-06  1.83405084E-01 -8.60853533E-02  1.11955938E-01  9.87962001E-07
  9.15458241E-03 -1.24040682E-02  3.49158406E-02 -2.09443431E-02  4.16846608E-07
 -3.21577683E-02  3.31465035E-02 -2.50430304E-02 -1.63642471E-07  1.94391140E-01
  4.00896003E-03  2.11000479E-02 -1.12137003E-01  1.48034499E-01  4.31791457E-07
  5.69893858E-02 -6.33411487E-02  1.06658012E-01 -2.57035768E-07  1.87632186E-02
 -1.39785858E-02  5.16257087E-02 -4.88829222E-02 -4.57966631E-07 -2.01234856E-02
  3.35449331E-02 -4.40365678E-02 -1.05760185E-06  1.42665565E-01  1.20208866E-01
 -5.85999823E-02  5.68030403E-02 -8.01800704E-02 -2.06194435E-01 -7.30739364E-07
  1.62396963E-01 -4.80825517E-02 -1.51427631E-01 -1.71293361E-08  1.00099899E-02
 -1.45262840E-02  2.66664798E-02  1.51667165E-02  4.50924743E-07 -6.93108851E-02
  2.27717549E-02  2.39539015E-02  6.94384414E-07 -3.22834237E-02 -6.23837244E-02
  1.93111940E-01  2.34678371E-02  1.06921533E-02 -7.44045969E-02 -1.92914658E-01
 -6.20307344E-07  4.04171909E-02 -4.02163146E-02 -1.40299469E-01  1.87263688E-07
  2.09142663E-02 -2.40493955E-02  6.64640747E-02  3.20316905E-02  8.96480624E-07
 -6.94346261E-02  3.58744027E-02  3.52428353E-02  1.12792962E-06 -6.38583157E-02
 -7.12913301E-02  1.55458632E-01  1.44780817E-01  9.15454811E-03 -1.24040232E-02
 -3.49159295E-02 -2.09443924E-02 -2.96001672E-07 -3.21569300E-02 -3.31461141E-02
 -2.50429133E-02  8.21840243E-08 -7.10558281E-02  6.59394582E-02  1.44966295E-01
  1.61912966E-01  9.47943213E-08  1.83405154E-01  8.60856344E-02  1.11955839E-01
  2.89643819E-07 -1.75316704E-02 -2.56743366E-02  3.14015271E-02  4.87819599E-02
  1.94391285E-01  1.87630386E-02 -1.39783351E-02 -5.16251980E-02 -4.88827520E-02
  1.17905405E-07 -2.01223975E-02 -3.35442807E-02 -4.40362807E-02  6.13459850E-07
  4.00890119E-03  2.11001276E-02  1.12136291E-01  1.48034881E-01  7.42500763E-07
  5.69890897E-02  6.33407438E-02  1.06658388E-01  9.60607792E-07 -2.56744434E-02
 -3.35217573E-02  5.19922831E-02  6.68368579E-02  1.42665359E-01  1.20208587E-01
  1.00099786E-02 -1.45262668E-02 -2.66664605E-02  1.51666533E-02 -9.32970050E-08
 -6.93106351E-02 -2.27717761E-02  2.39536914E-02 -4.77301526E-07 -5.85995263E-02
  5.68026000E-02  8.01802998E-02 -2.06194411E-01  1.11645472E-07  1.62395737E-01
  4.80830685E-02 -1.51427986E-01 -3.96992416E-07  3.14016003E-02  5.19925202E-02
 -3.15262579E-02 -3.61753959E-02 -3.22832622E-02 -6.23841449E-02  1.93111760E-01
  2.09142653E-02 -2.40493899E-02 -6.64642616E-02  3.20316543E-02 -6.32883001E-07
 -6.94346070E-02 -3.58746109E-02  3.52427449E-02 -1.03523901E-06  2.34681566E-02
  1.06917230E-02  7.44047553E-02 -1.92915796E-01 -3.84309429E-07  4.04160993E-02
  4.02167085E-02 -1.40300605E-01 -9.89548390E-07  4.87822610E-02  6.68374353E-02
 -3.61755346E-02 -3.67368960E-02 -6.38588552E-02 -7.12922886E-02  1.55459370E-01
  1.44782373E-01
Mulliken Charges                           R   N=           6
 -3.81874879E-01 -3.81874772E-01  1.93726659E-01  1.88148295E-01  1.93727326E-01
  1.88147372E-01
ONIOM Charges                              I   N=          16
           0           0           0           0           0           0
           0           0           0           0           0           0
           0           0           0           0
ONIOM Multiplicities                       I   N=          16
           1           0           0           0           0           0
           0           0           0           0           0           0
           0           0           0           0
Atom Layers                                I   N=           6
           1           1           1           1           1           1
Atom Modifiers                             I   N=           6
           0           0           0           0           0           0
Force Field                                I                0
Int Atom Modified Types                    I   N=           6
           0           0           0           0           0           0
Link Atoms                                 I   N=           6
           0           0           0           0           0           0
Atom Modified MM Charges                   R   N=           6
  0.00000000E+00  0.00000000E+00  0.00000000E+00  0.00000000E+00  0.00000000E+00
  0.00000000E+00
Link Distances                             R   N=          24
  0.00000000E+00  0.00000000E+00  0.00000000E+00  0.00000000E+00  0.00000000E+00
  0.00000000E+00  0.00000000E+00  0.00000000E+00  0.00000000E+00  0.00000000E+00