 Entering Gaussian System, Link 0=/home/george/soft/gauss//g09/g09
 Initial command:
 /home/george/soft/gauss//g09/l1.exe "/home/george/soft/gauss/scr/Gau-29943.inp" -scrdir="/home/george/soft/gauss/scr/"
 Entering Link 1 = /home/george/soft/gauss//g09/l1.exe PID=     29945.
  
 Copyright (c) 1988,1990,1992,1993,1995,1998,2003,2009,2013,
            Gaussian, Inc.  All Rights Reserved.
  
 This is part of the Gaussian(R) 09 program.  It is based on
 the Gaussian(R) 03 system (copyright 2003, Gaussian, Inc.),
 the Gaussian(R) 98 system (copyright 1998, Gaussian, Inc.),
 the Gaussian(R) 94 system (copyright 1995, Gaussian, Inc.),
 the Gaussian 92(TM) system (copyright 1992, Gaussian, Inc.),
 the Gaussian 90(TM) system (copyright 1990, Gaussian, Inc.),
 the Gaussian 88(TM) system (copyright 1988, Gaussian, Inc.),
 the Gaussian 86(TM) system (copyright 1986, Carnegie Mellon
 University), and the Gaussian 82(TM) system (copyright 1983,
 Carnegie Mellon University). Gaussian is a federally registered
 trademark of Gaussian, Inc.
  
 This software contains proprietary and confidential information,
 including trade secrets, belonging to Gaussian, Inc.
  
 This software is provided under written license and may be
 used, copied, transmitted, or stored only in accord with that
 written license.
  
 The following legend is applicable only to US Government
 contracts under FAR:
  
                    RESTRICTED RIGHTS LEGEND
  
 Use, reproduction and disclosure by the US Government is
 subject to restrictions as set forth in subparagraphs (a)
 and (c) of the Commercial Computer Software - Restricted
 Rights clause in FAR 52.227-19.
  
 Gaussian, Inc.
 340 Quinnipiac St., Bldg. 40, Wallingford CT 06492
  
  
 ---------------------------------------------------------------
 Warning -- This program may not be used in any manner that
 competes with the business of Gaussian, Inc. or will provide
 assistance to any competitor of Gaussian, Inc.  The licensee
 of this program is prohibited from giving any competitor of
 Gaussian, Inc. access to this program.  By using this program,
 the user acknowledges that Gaussian, Inc. is engaged in the
 business of creating and licensing software in the field of
 computational chemistry and represents and warrants to the
 licensee that it is not a competitor of Gaussian, Inc. and that
 it will not use this program in any manner prohibited above.
 ---------------------------------------------------------------
  

 Cite this work as:
 Gaussian 09, Revision D.01,
 M. J. Frisch, G. W. Trucks, H. B. Schlegel, G. E. Scuseria, 
 M. A. Robb, J. R. Cheeseman, G. Scalmani, V. Barone, B. Mennucci, 
 G. A. Petersson, H. Nakatsuji, M. Caricato, X. Li, H. P. Hratchian, 
 A. F. Izmaylov, J. Bloino, G. Zheng, J. L. Sonnenberg, M. Hada, 
 M. Ehara, K. Toyota, R. Fukuda, J. Hasegawa, M. Ishida, T. Nakajima, 
 Y. Honda, O. Kitao, H. Nakai, T. Vreven, J. A. Montgomery, Jr., 
 J. E. Peralta, F. Ogliaro, M. Bearpark, J. J. Heyd, E. Brothers, 
 K. N. Kudin, V. N. Staroverov, T. Keith, R. Kobayashi, J. Normand, 
 K. Raghavachari, A. Rendell, J. C. Burant, S. S. Iyengar, J. Tomasi, 
 M. Cossi, N. Rega, J. M. Millam, M. Klene, J. E. Knox, J. B. Cross, 
 V. Bakken, C. Adamo, J. Jaramillo, R. Gomperts, R. E. Stratmann, 
 O. Yazyev, A. J. Austin, R. Cammi, C. Pomelli, J. W. Ochterski, 
 R. L. Martin, K. Morokuma, V. G. Zakrzewski, G. A. Voth, 
 P. Salvador, J. J. Dannenberg, S. Dapprich, A. D. Daniels, 
 O. Farkas, J. B. Foresman, J. V. Ortiz, J. Cioslowski, 
 and D. J. Fox, Gaussian, Inc., Wallingford CT, 2013.
 
 ******************************************
 Gaussian 09:  AM64L-G09RevD.01 24-Apr-2013
                11-Oct-2017 
 ******************************************
 %RWF=./tmp/1491325781427395173/rwf
 %Int=./tmp/1491325781427395173/int
 %D2E=./tmp/1491325781427395173/d2e
 %Scr=./tmp/1491325781427395173/skr
 %NoSave
 %chk=./tmp/1491325781427395173/chk
 %nproc=3
 Will use up to    3 processors via shared memory.
 %mem=1000mb
 ------------------------
 # B3lyp/3-21g nosym freq
 ------------------------
 1/10=4,30=1,38=1/1,3;
 2/12=2,15=1,17=6,18=5,40=1/2;
 3/5=5,11=2,16=1,25=1,30=1,71=2,74=-5,140=1/1,2,3;
 4//1;
 5/5=2,38=5,98=1/2;
 8/6=4,10=90,11=11/1;
 11/6=1,8=1,9=11,15=111,16=1,31=1/1,2,10;
 10/6=1,31=1/2;
 6/7=2,8=2,9=2,10=2,18=1,28=1/1;
 7/8=1,10=1,25=1,30=1/1,2,3,16;
 1/10=4,30=1/3;
 99//99;


 Symbolic Z-matrix:
 Charge =  0 Multiplicity = 1
 6                    -0.67017   0.09713  -0.00001 
 6                     0.67017   0.09713   0. 
 1                    -1.45179   0.79768   0.00001 
 1                    -1.07997  -0.89482  -0.00001 
 1                     1.45179   0.79768  0. 
 1                     1.07997  -0.89482   0. 
 

 GradGradGradGradGradGradGradGradGradGradGradGradGradGradGradGradGradGrad
 Berny optimization.
 Initialization pass.
 Trust Radius=3.00D-01 FncErr=1.00D-07 GrdErr=1.00D-07
 Number of steps in this run=      2 maximum allowed number of steps=      2.
 GradGradGradGradGradGradGradGradGradGradGradGradGradGradGradGradGradGrad

                          Input orientation:                          
 ---------------------------------------------------------------------
 Center     Atomic      Atomic             Coordinates (Angstroms)
 Number     Number       Type             X           Y           Z
 ---------------------------------------------------------------------
      1          6           0       -0.670172    0.097132   -0.000006
      2          6           0        0.670170    0.097135    0.000001
      3          1           0       -1.451789    0.797685    0.000009
      4          1           0       -1.079969   -0.894818   -0.000009
      5          1           0        1.451790    0.797681   -0.000002
      6          1           0        1.079971   -0.894815    0.000004
 ---------------------------------------------------------------------
                    Distance matrix (angstroms):
                    1          2          3          4          5
     1  C    0.000000
     2  C    1.340342   0.000000
     3  H    1.049618   2.234609   0.000000
     4  H    1.073265   2.011705   1.732863   0.000000
     5  H    2.234613   1.049617   2.903579   3.045383   0.000000
     6  H    2.011706   1.073267   3.045384   2.159940   1.732857
                    6
     6  H    0.000000
 Symmetry turned off by external request.
 Stoichiometry    C2H4
 Framework group  C1[X(C2H4)]
 Deg. of freedom    12
 Full point group                 C1      NOp   1
 Rotational constants (GHZ):    170.7222568     29.0808861     24.8482303
 Standard basis: 3-21G (6D, 7F)
    26 basis functions,    42 primitive gaussians,    26 cartesian basis functions
     8 alpha electrons        8 beta electrons
       nuclear repulsion energy        33.5634896279 Hartrees.
 NAtoms=    6 NActive=    6 NUniq=    6 SFac= 1.00D+00 NAtFMM=   60 NAOKFM=F Big=F
 Integral buffers will be    131072 words long.
 Raffenetti 2 integral format.
 Two-electron integral symmetry is turned off.
 One-electron integrals computed using PRISM.
 NBasis=    26 RedAO= T EigKep=  1.15D-02  NBF=    26
 NBsUse=    26 1.00D-06 EigRej= -1.00D+00 NBFU=    26
 ExpMin= 1.83D-01 ExpMax= 1.72D+02 ExpMxC= 1.72D+02 IAcc=1 IRadAn=         1 AccDes= 0.00D+00
 Harris functional with IExCor=  402 and IRadAn=       1 diagonalized for initial guess.
 HarFok:  IExCor=  402 AccDes= 0.00D+00 IRadAn=         1 IDoV= 1 UseB2=F ITyADJ=14
 ICtDFT=  3500011 ScaDFX=  1.000000  1.000000  1.000000  1.000000
 FoFCou: FMM=F IPFlag=           0 FMFlag=      100000 FMFlg1=           0
         NFxFlg=           0 DoJE=T BraDBF=F KetDBF=T FulRan=T
         wScrn=  0.000000 ICntrl=     500 IOpCl=  0 I1Cent=   200000004 NGrid=           0
         NMat0=    1 NMatS0=      1 NMatT0=    0 NMatD0=    1 NMtDS0=    0 NMtDT0=    0
 Symmetry not used in FoFCou.
 Keep R1 ints in memory in canonical form, NReq=942464.
 Requested convergence on RMS density matrix=1.00D-08 within 128 cycles.
 Requested convergence on MAX density matrix=1.00D-06.
 Requested convergence on             energy=1.00D-06.
 No special actions if energy rises.
 Integral accuracy reduced to 1.0D-05 until final iterations.
 Initial convergence to 1.0D-05 achieved.  Increase integral accuracy.
 SCF Done:  E(RB3LYP) =  -78.1452168651     A.U. after   10 cycles
            NFock= 10  Conv=0.28D-08     -V/T= 2.0084
 DoSCS=F DFT=T ScalE2(SS,OS)=  1.000000  1.000000
 Range of M.O.s used for correlation:     1    26
 NBasis=    26 NAE=     8 NBE=     8 NFC=     0 NFV=     0
 NROrb=     26 NOA=     8 NOB=     8 NVA=    18 NVB=    18
 Symmetrizing basis deriv contribution to polar:
 IMax=3 JMax=2 DiffMx= 0.00D+00
 G2DrvN: will do     7 centers at a time, making    1 passes.
 Calling FoFCou, ICntrl=  3107 FMM=F I1Cent=   0 AccDes= 0.00D+00.
 End of G2Drv F.D. properties file   721 does not exist.
 End of G2Drv F.D. properties file   722 does not exist.
 End of G2Drv F.D. properties file   788 does not exist.
          IDoAtm=111111
          Differentiating once with respect to electric field.
                with respect to dipole field.
          Differentiating once with respect to nuclear coordinates.
 Keep R1 ints in memory in canonical form, NReq=921684.
          There are    21 degrees of freedom in the 1st order CPHF.  IDoFFX=6 NUNeed=     3.
     18 vectors produced by pass  0 Test12= 6.86D-16 4.76D-09 XBig12= 3.12D+01 4.80D+00.
 AX will form    18 AO Fock derivatives at one time.
     18 vectors produced by pass  1 Test12= 6.86D-16 4.76D-09 XBig12= 2.84D+00 6.41D-01.
     18 vectors produced by pass  2 Test12= 6.86D-16 4.76D-09 XBig12= 1.93D-02 8.37D-02.
     18 vectors produced by pass  3 Test12= 6.86D-16 4.76D-09 XBig12= 1.26D-05 1.35D-03.
     17 vectors produced by pass  4 Test12= 6.86D-16 4.76D-09 XBig12= 2.72D-09 1.65D-05.
      2 vectors produced by pass  5 Test12= 6.86D-16 4.76D-09 XBig12= 5.98D-13 2.86D-07.
 InvSVY:  IOpt=1 It=  1 EMax= 8.88D-16
 Solved reduced A of dimension    91 with    21 vectors.
 Isotropic polarizability for W=    0.000000       17.88 Bohr**3.
 End of Minotr F.D. properties file   721 does not exist.
 End of Minotr F.D. properties file   722 does not exist.
 End of Minotr F.D. properties file   788 does not exist.

 **********************************************************************

            Population analysis using the SCF density.

 **********************************************************************

 Alpha  occ. eigenvalues --  -10.11993 -10.11890  -0.76191  -0.59410  -0.47082
 Alpha  occ. eigenvalues --   -0.43419  -0.34363  -0.27026
 Alpha virt. eigenvalues --    0.01764   0.13746   0.17598   0.18214   0.27940
 Alpha virt. eigenvalues --    0.37424   0.65905   0.73139   0.74328   0.79887
 Alpha virt. eigenvalues --    0.81473   0.92068   1.03374   1.06212   1.10362
 Alpha virt. eigenvalues --    1.27723   1.41128   1.73339
          Condensed to atoms (all electrons):
               1          2          3          4          5          6
     1  C    5.121518   0.586592   0.379025   0.381735  -0.029677  -0.057319
     2  C    0.586592   5.121520  -0.029677  -0.057319   0.379025   0.381734
     3  H    0.379025  -0.029677   0.498895  -0.043148  -0.002480   0.003658
     4  H    0.381735  -0.057319  -0.043148   0.538714   0.003658  -0.011788
     5  H   -0.029677   0.379025  -0.002480   0.003658   0.498894  -0.043149
     6  H   -0.057319   0.381734   0.003658  -0.011788  -0.043149   0.538716
 Mulliken charges:
               1
     1  C   -0.381875
     2  C   -0.381875
     3  H    0.193727
     4  H    0.188148
     5  H    0.193727
     6  H    0.188147
 Sum of Mulliken charges =   0.00000
 Mulliken charges with hydrogens summed into heavy atoms:
               1
     1  C    0.000000
     2  C    0.000000
 APT charges:
               1
     1  C   -0.073247
     2  C   -0.073248
     3  H    0.064141
     4  H    0.009106
     5  H    0.064143
     6  H    0.009104
 Sum of APT charges =   0.00000
 APT charges with hydrogens summed into heavy atoms:
               1
     1  C    0.000001
     2  C   -0.000001
 Electronic spatial extent (au):  <R**2>=             82.4621
 Charge=              0.0000 electrons
 Dipole moment (field-independent basis, Debye):
    X=              0.0000    Y=             -0.1440    Z=              0.0000  Tot=              0.1440
 Quadrupole moment (field-independent basis, Debye-Ang):
   XX=            -11.3531   YY=            -12.6901   ZZ=            -15.1842
   XY=              0.0000   XZ=              0.0000   YZ=              0.0000
 Traceless Quadrupole moment (field-independent basis, Debye-Ang):
   XX=              1.7227   YY=              0.3856   ZZ=             -2.1084
   XY=              0.0000   XZ=              0.0000   YZ=              0.0000
 Octapole moment (field-independent basis, Debye-Ang**2):
  XXX=              0.0001  YYY=             -3.1575  ZZZ=              0.0001  XYY=              0.0000
  XXY=              0.3626  XXZ=              0.0000  XZZ=              0.0000  YZZ=             -0.9837
  YYZ=              0.0000  XYZ=              0.0000
 Hexadecapole moment (field-independent basis, Debye-Ang**3):
 XXXX=            -63.0935 YYYY=            -24.6512 ZZZZ=            -15.4749 XXXY=              0.0000
 XXXZ=             -0.0001 YYYX=              0.0000 YYYZ=              0.0000 ZZZX=             -0.0001
 ZZZY=              0.0000 XXYY=            -13.3136 XXZZ=            -14.6486 YYZZ=             -7.1054
 XXYZ=              0.0000 YYXZ=              0.0000 ZZXY=              0.0000
 N-N= 3.356348962791D+01 E-N=-2.475304913771D+02  KE= 7.749408888231D+01
  Exact polarizability:  29.880   0.000  17.695   0.000   0.000   6.057
 Approx polarizability:  46.929   0.000  21.449   0.000   0.000   6.848
