                                                                        
Freq      RB3LYP                                                      3-21G               
Number of atoms                            I                6
Info1-9                                    I   N=           9
          19          19           0           0           0         100
           6          18        -502
Charge                                     I                0
Multiplicity                               I                1
Number of electrons                        I               16
Number of alpha electrons                  I                8
Number of beta electrons                   I                8
Number of basis functions                  I               26
Number of independent functions            I               26
Number of point charges in /Mol/           I                0
Number of translation vectors              I                0
Atomic numbers                             I   N=           6
           6           6           1           1           1           1
Nuclear charges                            R   N=           6
  6.00000000E+00  6.00000000E+00  1.00000000E+00  1.00000000E+00  1.00000000E+00
  1.00000000E+00
Current cartesian coordinates              R   N=          18
 -1.30461369E+00 -4.56959556E-02 -4.65779640E-06  1.19548544E+00 -1.21151554E-01
 -8.03249146E-08 -2.34396467E+00  1.72009586E+00  5.02714997E-06 -2.42897844E+00
 -1.76463522E+00 -8.98081505E-06  2.54327199E+00  2.02831839E+00  8.33827084E-06
  2.33879917E+00 -1.81693168E+00 -2.76505217E-06
Force Field                                I                0
Int Atom Types                             I   N=           6
           0           0           0           0           0           0
MM charges                                 R   N=           6
  0.00000000E+00  0.00000000E+00  0.00000000E+00  0.00000000E+00  0.00000000E+00
  0.00000000E+00
Integer atomic weights                     I   N=           6
          12          12           1           1           1           1
Real atomic weights                        R   N=           6
  1.20000000E+01  1.20000000E+01  1.00782504E+00  1.00782504E+00  1.00782504E+00
  1.00782504E+00
Atom fragment info                         I   N=           6
           0           0           0           0           0           0
Atom residue num                           I   N=           6
           0           0           0           0           0           0
Nuclear spins                              I   N=           6
           0           0           1           1           1           1
Nuclear ZEff                               R   N=           6
 -3.60000000E+00 -3.60000000E+00 -1.00000000E+00 -1.00000000E+00 -1.00000000E+00
 -1.00000000E+00
Nuclear ZNuc                               R   N=           6
  6.00000000E+00  6.00000000E+00  1.00000000E+00  1.00000000E+00  1.00000000E+00
  1.00000000E+00
Nuclear QMom                               R   N=           6
  0.00000000E+00  0.00000000E+00  0.00000000E+00  0.00000000E+00  0.00000000E+00
  0.00000000E+00
Nuclear GFac                               R   N=           6
  0.00000000E+00  0.00000000E+00  2.79284600E+00  2.79284600E+00  2.79284600E+00
  2.79284600E+00
MicOpt                                     I   N=           6
          -1          -1          -1          -1          -1          -1
Number of contracted shells                I               14
Number of primitive shells                 I               24
Pure/Cartesian d shells                    I                1
Pure/Cartesian f shells                    I                0
Highest angular momentum                   I                1
Largest degree of contraction              I                3
Shell types                                I   N=          14
           0          -1          -1           0          -1          -1
           0           0           0           0           0           0
           0           0
Number of primitives per shell             I   N=          14
           3           2           1           3           2           1
           2           1           2           1           2           1
           2           1
Shell to atom map                          I   N=          14
           1           1           1           2           2           2
           3           3           4           4           5           5
           6           6
Primitive exponents                        R   N=          24
  1.72256000E+02  2.59109000E+01  5.53335000E+00  3.66498000E+00  7.70545000E-01
  1.95857000E-01  1.72256000E+02  2.59109000E+01  5.53335000E+00  3.66498000E+00
  7.70545000E-01  1.95857000E-01  5.44717800E+00  8.24547240E-01  1.83191580E-01
  5.44717800E+00  8.24547240E-01  1.83191580E-01  5.44717800E+00  8.24547240E-01
  1.83191580E-01  5.44717800E+00  8.24547240E-01  1.83191580E-01
Contraction coefficients                   R   N=          24
  6.17669074E-02  3.58794043E-01  7.00713084E-01 -3.95895162E-01  1.21583436E+00
  1.00000000E+00  6.17669074E-02  3.58794043E-01  7.00713084E-01 -3.95895162E-01
  1.21583436E+00  1.00000000E+00  1.56284979E-01  9.04690877E-01  1.00000000E+00
  1.56284979E-01  9.04690877E-01  1.00000000E+00  1.56284979E-01  9.04690877E-01
  1.00000000E+00  1.56284979E-01  9.04690877E-01  1.00000000E+00
P(S=P) Contraction coefficients            R   N=          24
  0.00000000E+00  0.00000000E+00  0.00000000E+00  2.36459947E-01  8.60618806E-01
  1.00000000E+00  0.00000000E+00  0.00000000E+00  0.00000000E+00  2.36459947E-01
  8.60618806E-01  1.00000000E+00  0.00000000E+00  0.00000000E+00  0.00000000E+00
  0.00000000E+00  0.00000000E+00  0.00000000E+00  0.00000000E+00  0.00000000E+00
  0.00000000E+00  0.00000000E+00  0.00000000E+00  0.00000000E+00
Coordinates of each shell                  R   N=          42
 -1.30461369E+00 -4.56959556E-02 -4.65779640E-06 -1.30461369E+00 -4.56959556E-02
 -4.65779640E-06 -1.30461369E+00 -4.56959556E-02 -4.65779640E-06  1.19548544E+00
 -1.21151554E-01 -8.03249146E-08  1.19548544E+00 -1.21151554E-01 -8.03249146E-08
  1.19548544E+00 -1.21151554E-01 -8.03249146E-08 -2.34396467E+00  1.72009586E+00
  5.02714997E-06 -2.34396467E+00  1.72009586E+00  5.02714997E-06 -2.42897844E+00
 -1.76463522E+00 -8.98081505E-06 -2.42897844E+00 -1.76463522E+00 -8.98081505E-06
  2.54327199E+00  2.02831839E+00  8.33827084E-06  2.54327199E+00  2.02831839E+00
  8.33827084E-06  2.33879917E+00 -1.81693168E+00 -2.76505217E-06  2.33879917E+00
 -1.81693168E+00 -2.76505217E-06
Constraint Structure                       R   N=          18
 -1.30461369E+00 -4.56959556E-02 -4.65779640E-06  1.19548544E+00 -1.21151554E-01
 -8.03249146E-08 -2.34396467E+00  1.72009586E+00  5.02714997E-06 -2.42897844E+00
 -1.76463522E+00 -8.98081505E-06  2.54327199E+00  2.02831839E+00  8.33827084E-06
  2.33879917E+00 -1.81693168E+00 -2.76505217E-06
Num ILSW                                   I              100
ILSW                                       I   N=         100
           0           1           0           0           2           0
           0           0           0           0         402          -1
           0           0           0           0           2           0
           0           0           1           0           1           0
           1           1           0           0           0           0
           0           0      100000           0          -1           0
           0           0           0           0           0           0
           0           0           0           1           0           0
           0           0           1           0           0           0
           0           0           4          41           0           0
           0           0           5           0           0           0
           0           0           0           0           0           0
           0           0           0           0           0           0
           0           0           0           0           0           0
           0           0           0           0           0           0
           0           0           0           0           0           0
           0           0           0           0
Num RLSW                                   I               41
RLSW                                       R   N=          41
  8.00000000E-01  7.20000000E-01  1.00000000E+00  8.10000000E-01  2.00000000E-01
  0.00000000E+00  0.00000000E+00  1.00000000E+00  0.00000000E+00  0.00000000E+00
  0.00000000E+00  0.00000000E+00  1.00000000E+00  0.00000000E+00  0.00000000E+00
  0.00000000E+00  0.00000000E+00  1.00000000E+00  0.00000000E+00  0.00000000E+00
  0.00000000E+00  0.00000000E+00  1.00000000E+00  0.00000000E+00  0.00000000E+00
  0.00000000E+00  0.00000000E+00  1.00000000E+00  0.00000000E+00  0.00000000E+00
  0.00000000E+00  0.00000000E+00  1.00000000E+00  0.00000000E+00  0.00000000E+00
  0.00000000E+00  0.00000000E+00  0.00000000E+00  1.00000000E+00  1.00000000E+00
  0.00000000E+00
MxBond                                     I                3
NBond                                      I   N=           6
           3           2           1           1           0           1
IBond                                      I   N=          18
           2           3           4           1           6           0
           1           0           0           1           0           0
           0           0           0           2           0           0
RBond                                      R   N=          18
  2.00000000E+00  1.00000000E+00  1.00000000E+00  2.00000000E+00  1.00000000E+00
  0.00000000E+00  1.00000000E+00  0.00000000E+00  0.00000000E+00  1.00000000E+00
  0.00000000E+00  0.00000000E+00  0.00000000E+00  0.00000000E+00  0.00000000E+00
  1.00000000E+00  0.00000000E+00  0.00000000E+00
Virial Ratio                               R      2.012603421416172E+00
SCF Energy                                 R     -7.813495701616483E+01
Total Energy                               R     -7.813495701616483E+01
RMS Force                                  R      2.831545177282114E-02
RMS Density                                R      2.945555927059793E-09
External E-field                           R   N=          35
  0.00000000E+00  0.00000000E+00  0.00000000E+00  0.00000000E+00  0.00000000E+00
  0.00000000E+00  0.00000000E+00  0.00000000E+00  0.00000000E+00  0.00000000E+00
  0.00000000E+00  0.00000000E+00  0.00000000E+00  0.00000000E+00  0.00000000E+00
  0.00000000E+00  0.00000000E+00  0.00000000E+00  0.00000000E+00  0.00000000E+00
  0.00000000E+00  0.00000000E+00  0.00000000E+00  0.00000000E+00  0.00000000E+00
  0.00000000E+00  0.00000000E+00  0.00000000E+00  0.00000000E+00  0.00000000E+00
  0.00000000E+00  0.00000000E+00  0.00000000E+00  0.00000000E+00  0.00000000E+00
IOpCl                                      I                0
IROHF                                      I                0
Alpha Orbital Energies                     R   N=          26
 -1.01420500E+01 -1.01220865E+01 -7.59581005E-01 -5.67507989E-01 -4.60702984E-01
 -4.22254593E-01 -3.32870091E-01 -2.74244753E-01  2.22069565E-02  8.34060000E-02
  1.49659062E-01  1.67442371E-01  2.64644918E-01  3.73424061E-01  6.65964513E-01
  7.26139295E-01  7.27621259E-01  7.97293944E-01  8.43237661E-01  8.67799248E-01
  9.46614361E-01  1.03979208E+00  1.07957707E+00  1.35186879E+00  1.38833096E+00
  1.70189405E+00
Alpha MO coefficients                      R   N=         676
 -2.49442416E-02 -7.48131032E-03 -3.50733463E-03  8.10025489E-05 -5.73489407E-09
  2.99768117E-02  1.65767150E-02 -7.02745398E-04  2.79346150E-08  9.85169995E-01
  1.05378373E-01 -5.31215606E-04 -3.32018890E-04 -3.08262253E-09 -7.46372409E-02
  1.05186584E-02  1.42026128E-03  2.53034819E-08 -1.15063423E-03  1.46695524E-03
 -1.18003829E-03  1.37757784E-03  6.04443645E-04  7.85974710E-03 -2.21383016E-03
  1.39167460E-02  9.85131868E-01  1.06127200E-01  1.97786866E-04 -3.07834013E-05
  1.04173135E-08 -7.70780905E-02 -8.20869212E-03  2.58434957E-04 -5.72507067E-08
  2.47463166E-02 -1.99864964E-03  3.25027797E-03 -2.68938415E-04  5.52846028E-09
  2.58919119E-02 -1.52381341E-02  8.19841229E-04 -1.72989962E-08 -1.98881022E-03
  1.38479658E-02 -1.93726531E-03  1.38167046E-02 -8.87579182E-04  1.06005138E-03
 -1.17005989E-03  1.93420160E-03 -1.74647592E-01  1.89701813E-01  1.08707029E-01
 -6.69766454E-03  3.64915856E-07  3.90125117E-01  1.50128147E-02 -3.35186742E-03
  2.07078743E-07 -1.61935234E-01  1.77363257E-01 -1.24442590E-01 -1.36437488E-02
 -2.57330506E-07  3.48759431E-01 -1.93678192E-02 -8.90922551E-03 -8.55533665E-08
  8.06209056E-02  6.09935305E-03  8.24501778E-02  5.70974191E-03  4.06649806E-02
  9.18230040E-03  7.62829882E-02  4.72971251E-03  1.20429681E-01 -1.22893428E-01
  1.67905358E-01 -2.61855800E-02 -2.06641223E-07 -4.03686284E-01  6.99911936E-02
 -1.28679271E-02 -2.38880883E-07 -1.35448530E-01  1.39883072E-01  1.18074212E-01
 -6.72558132E-02 -8.18171087E-08  4.40384899E-01  4.80398349E-02 -3.32346006E-02
 -1.91278234E-08 -1.46123407E-01 -7.57839840E-02 -1.28388204E-01 -6.59014712E-02
  7.37676591E-02  5.01990832E-02  1.68746529E-01  8.86889707E-02  6.99296099E-03
 -3.91865738E-03  1.37747564E-01  2.99093360E-01  1.18270907E-06 -3.61672710E-02
  7.73663365E-02  1.99319297E-01  7.61287808E-07 -2.01099187E-02  2.21442800E-02
 -9.66718405E-02  2.40981900E-01  5.21148090E-07  5.71080334E-02 -4.06935324E-02
  1.60495005E-01  3.99438145E-07  1.06773475E-01  8.01071759E-02 -2.05103215E-01
 -1.64073536E-01  8.74463451E-02  8.14918179E-02 -1.32425611E-01 -1.09384113E-01
  1.18572365E-02 -2.21088124E-02 -3.26843641E-01  1.47764981E-01  4.96961796E-07
 -4.70536580E-03 -1.89887540E-01  1.04190251E-01  4.16343216E-07 -2.54379697E-03
 -1.13870224E-02  3.49812469E-01 -3.47930152E-03  9.01668614E-07  6.74302907E-02
  1.96877938E-01  9.81089534E-03  5.55535521E-07  1.83773545E-01  1.70864177E-01
  2.43916606E-02  3.51721140E-02  1.00557491E-01  1.16684765E-01  1.37314704E-01
  1.34250978E-01  8.88445318E-03 -1.20037337E-02 -5.40552468E-02 -2.07191315E-01
 -1.29927672E-06 -1.88074919E-02 -2.65680221E-02 -1.75378077E-01 -1.09876249E-06
 -9.51762770E-03  9.45133661E-04  7.09643277E-02  2.75547621E-01  5.22353080E-07
  6.06567461E-02  6.82980934E-02  2.45571694E-01  4.90768398E-07 -1.44826363E-01
 -1.42494524E-01  1.66539544E-01  1.82539840E-01  2.20909432E-01  2.95550810E-01
 -1.55082623E-01 -1.58146463E-01  2.33418980E-07 -2.49866830E-07 -5.59458595E-08
 -1.66388568E-06  3.48717870E-01 -7.87340357E-07 -1.08361389E-09 -1.62504287E-06
  3.56540235E-01 -8.22480389E-08  1.08929043E-07 -9.35820445E-07 -6.83148557E-07
  3.49571380E-01  9.94915259E-08 -6.57132743E-07 -7.37340287E-07  3.47442164E-01
 -2.31865849E-07 -3.82101230E-07  2.77950542E-07  2.88559172E-07  2.39022426E-07
  3.51576502E-07 -3.13847316E-07 -4.52751464E-07  3.71167110E-07 -2.77202343E-07
  7.72276017E-09 -1.53414678E-06  3.63409416E-01 -2.66717099E-06  3.68271512E-07
 -2.97099293E-06  6.77786499E-01 -3.28934614E-09  7.95724472E-08  3.83404451E-07
  8.40978755E-07 -3.69937766E-01 -6.51732746E-07  1.19862204E-06  1.48583208E-06
 -6.76956291E-01  6.40461242E-07  2.00694164E-06  3.00235398E-07  7.98246386E-07
  2.04228345E-07  8.82126151E-07 -1.37678074E-07 -4.80061502E-07  1.36737936E-03
  5.58217906E-03  6.49411762E-02 -9.07782895E-02 -6.80434479E-07 -1.49801638E-01
  1.89970528E-01 -2.47806757E-01 -1.95038464E-06  1.08962017E-01 -7.26089762E-02
 -1.75909995E-01 -2.52143855E-01 -6.76244119E-07 -1.00424145E+00 -3.93692976E-01
 -4.87718700E-01 -1.15889942E-06  6.20397202E-02  5.27497406E-01 -6.38590782E-02
 -2.44595040E-01  1.68069790E-01  1.19345262E+00  1.87299366E-02  2.35101696E-01
  7.72450875E-02 -4.13185021E-02  1.47944968E-01  1.64699354E-01  3.64120350E-07
 -1.08498951E+00  4.92883748E-01  4.55119525E-01  6.91951357E-07  6.43306363E-02
 -3.67938888E-02 -1.13129428E-01  1.78434574E-01  3.82466156E-07 -9.10563811E-01
 -4.12364470E-01  4.76191630E-01  1.16430074E-06 -1.72424527E-02  1.63226010E-01
  8.83289516E-02  1.36076056E+00 -2.81696410E-02 -1.53646402E-02  7.62478910E-02
  1.24628626E+00 -1.38869724E-01  8.23267379E-02 -1.15560496E-01  1.13098010E-01
  1.32093500E-06  1.72933689E+00 -3.44093346E-01  3.31243110E-01  4.30808716E-06
  8.97377093E-02 -5.05613861E-02 -5.32599463E-02  8.53222409E-02 -2.20614358E-07
 -1.00754201E+00 -5.10935893E-02  2.50925577E-01 -1.00867915E-06 -8.99485601E-02
 -1.45085313E+00 -2.96685555E-02 -6.54384917E-01  2.78342189E-02  1.79572473E-01
  7.79438519E-02  9.16945564E-01  9.75645682E-03 -1.34172975E-03 -8.28232197E-03
  3.41515021E-01  1.32148800E-06 -1.58597165E-01 -1.22134818E-01  1.52448341E+00
  5.51730315E-06 -2.99678407E-02  1.36874387E-02  1.05702797E-02 -2.75697844E-01
 -7.58979737E-07  6.67218235E-01  7.66911022E-03 -1.23116519E+00 -3.92142053E-06
  1.54728940E-02 -1.37070233E+00 -1.54842066E-02  1.34615301E+00  1.61723489E-02
  6.55718102E-01  2.80253341E-02 -1.28652892E+00  9.86428159E-02 -9.60888307E-03
 -1.92810636E-01 -9.98384468E-03  5.60569090E-08 -2.58000342E+00 -2.54969371E+00
 -3.62134603E-02 -3.78329633E-06 -1.01497644E-01  9.85525949E-03 -2.19263124E-01
  4.19768346E-02 -2.93020249E-07  2.65883290E+00 -2.48016246E+00  2.88298258E-01
 -4.40821931E-06 -7.89023394E-02 -3.29401847E-01 -6.52926525E-02 -4.79443138E-01
  5.84259459E-02  1.62140968E-01  3.97985360E-02  6.20281841E-01  1.13907149E-02
  1.24088476E-01  6.94222707E-01  3.25683374E-02  1.60427628E-06  5.57462232E-01
 -9.58787408E-01 -4.49645896E-02 -1.38430607E-06  2.73125204E-02  1.29679802E-01
 -6.21383986E-01  1.34424818E-03 -8.03364742E-07  3.34793980E-01  1.13436374E+00
 -6.24336843E-02  1.43368657E-06 -2.67574319E-02 -1.88525484E-01 -1.10492679E-01
 -1.61556025E-01  1.09348361E-01 -3.10363890E-01 -3.97242976E-02 -2.98361200E-01
  1.20581047E-07 -3.08834168E-07 -9.36014368E-07 -3.49950096E-06  7.33816712E-01
 -9.85837506E-07  2.19503863E-06  3.31358984E-06 -5.67785223E-01  3.06306431E-08
  5.47591927E-08 -9.16423046E-07 -2.59936649E-06  7.68521770E-01 -8.70658322E-07
  7.79374452E-07  2.12731505E-06 -6.19577312E-01  2.98455044E-07  6.94021221E-07
  1.11756824E-06  8.00137093E-07 -5.49326859E-07  3.78559172E-07  6.44786053E-07
 -8.50952699E-08 -1.26397144E-02  5.40255534E-02  1.69053092E-01 -4.50457112E-01
 -1.55302209E-06 -5.91463554E-02 -1.73466078E-01  8.35557704E-01  3.22664604E-06
  2.97475301E-02  7.61438029E-02  4.12435923E-02 -4.68339381E-01 -2.79619907E-06
 -1.22731512E-01 -1.75276006E-01  5.63800738E-01  2.32664616E-06 -4.28181262E-01
 -9.16055353E-02  3.96623904E-01  4.43307614E-02 -1.59117645E-01  5.10522009E-04
  5.93474075E-01 -1.06020686E-01  5.69873282E-09  6.36686210E-07  6.80127532E-07
  2.71898955E-06 -7.87141963E-01  1.10217440E-07 -1.97481263E-06 -3.25270169E-06
  1.01956706E+00 -3.94349744E-08  4.08977790E-07 -2.34283267E-06 -2.79962648E-06
  7.49713400E-01  1.07588337E-07  1.93054849E-06  4.27735957E-06 -9.92749012E-01
  4.12166395E-07 -1.35122318E-06  1.16384342E-06 -1.32566136E-06  7.75878701E-07
 -1.16552444E-06  9.27761418E-07  4.29960012E-08  8.72643447E-02  9.26354848E-02
 -4.74973955E-01 -6.82812678E-02 -7.16628821E-07 -6.43692608E-02  7.07376107E-01
  1.98392320E-01 -6.64066602E-07 -5.41619994E-02  1.61914358E-01 -6.68610548E-01
 -1.09557109E-01 -2.78461113E-06 -2.49142066E-01  6.89630939E-01  1.81165190E-02
  3.66372705E-06  5.59695106E-01 -2.32277154E-01  6.94617865E-01 -1.14648203E-01
 -1.52446031E-01 -2.93715348E-02 -1.12065040E-01 -6.80293557E-02 -2.47600394E-03
 -1.71568612E-01 -1.20629384E-01 -2.34804297E-01 -1.70584518E-06  4.54076746E-01
 -2.52952663E-02  7.72520114E-01  4.63629038E-06 -2.98197319E-02 -4.42613689E-02
 -1.49750622E-01  1.54628647E-01  8.83871705E-07 -7.99095888E-02  3.92100637E-01
 -7.70384519E-01 -3.06334585E-06 -3.81478304E-01 -1.96549751E-01 -2.28401247E-01
  3.92223497E-01 -1.02533503E+00  1.10602883E+00 -4.30501570E-01 -1.94367494E-01
 -9.46847997E-03 -1.56874011E-01 -3.24187552E-01  2.26617859E-01  9.37628656E-07
  3.09160264E-01  4.11219242E-01 -6.67212686E-01 -1.79220742E-06 -1.21899614E-02
 -2.36330645E-01 -2.16006870E-01 -8.14049187E-01 -2.46111964E-06 -7.14209100E-02
  4.89772106E-01  1.36415481E+00  4.39193430E-06 -4.37390415E-01  6.49668481E-01
 -2.31012737E-01 -1.45792268E-02  2.88259886E-01 -1.03963677E+00 -6.04257801E-01
  9.39286451E-01 -6.97173169E-03 -2.95233838E-03 -2.22335800E-01 -9.17766776E-01
 -3.63700777E-06  1.18106070E-01  4.12786420E-01  1.57526828E+00  6.45367786E-06
  4.26825075E-03 -1.15340140E-01 -1.64206482E-01  6.34935081E-03 -3.08197035E-07
  4.30864292E-02  3.79634187E-01 -3.43471282E-01 -4.76098044E-07  4.44469607E-01
 -1.10540471E+00 -7.39416586E-01  1.55530171E+00  3.09586733E-01 -3.46388698E-01
 -7.02863633E-03 -2.28396702E-01  1.99957282E-02 -6.51289495E-02  6.07091859E-01
 -2.18417517E-01 -8.07485578E-07 -3.85030384E-01 -1.19294176E+00  2.16505864E-01
  1.30828603E-07 -1.84622073E-02  1.41856226E-01  5.91589499E-01 -4.17299746E-01
 -2.23413699E-07  2.65906734E-01 -1.22645591E+00  6.30766103E-01 -4.79361336E-07
  6.11763206E-01 -9.97432037E-01  2.55244343E-01 -4.03561003E-01 -1.57303541E-01
  1.70147898E-01 -6.80799417E-01  1.30700135E+00  1.61847686E-02 -5.71912866E-01
  1.09924519E-01 -3.35502895E-01 -1.41751144E-06  8.03527068E-01 -2.00541800E-01
  2.16181614E+00  8.58667760E-06  1.29397888E-03 -6.96608060E-01  1.09185439E-02
  4.55414846E-01  1.33920650E-06  1.29183080E+00  2.42320189E-01 -2.12288633E+00
 -6.38282530E-06 -4.43132588E-01 -9.01112535E-01  6.52746090E-01  1.66542208E-01
  5.27779183E-01  3.20317590E-02 -4.65550214E-01 -9.93155774E-01  3.05286098E-02
 -1.06701700E+00  1.46402847E-01  1.90963978E-01  2.92049451E-07  1.41849156E+00
 -4.35142564E-01 -1.18983867E+00 -3.27692651E-06  3.35158637E-02 -9.93706827E-01
 -1.24180003E-01 -1.81211711E-01 -8.07008446E-07  1.14406315E+00  9.64095389E-02
  1.00890606E+00  3.01870080E-06  4.61593859E-01 -3.26721833E-01 -1.36630299E-01
 -9.48318108E-01 -3.27391192E-01 -3.45119054E-01  4.76849703E-01 -2.81806648E-01
 -3.06324968E-03 -1.42910152E+00 -8.35327583E-02 -1.11504915E-02 -4.60497684E-07
  3.90724882E+00  1.18982707E+00  1.49933899E-02  3.97148136E-06 -2.82837315E-03
  1.37418864E+00 -5.66145230E-02  3.46028088E-02 -3.77833633E-09 -3.70359371E+00
  1.21566865E+00 -4.65562626E-02  1.74146821E-06 -1.30319894E-01 -3.63407249E-01
 -1.14908832E-01 -3.30252787E-01  1.99039437E-01  1.49456548E-01  7.55199326E-02
  3.35305577E-01
Total SCF Density                          R   N=         351
  2.03276106E+00  1.12817445E-01  1.26113541E-01 -3.74949688E-03  1.47397789E-02
  3.37489789E-01 -2.65706529E-05 -1.65593030E-05 -2.04391498E-03  3.09900239E-01
  1.16106127E-08  1.72195782E-08  1.12409636E-07  2.38224629E-07  2.43208306E-01
 -3.87811715E-01  2.31370006E-01 -5.58390451E-02  6.93406570E-04 -1.40862109E-07
  6.47367594E-01 -9.27927329E-03 -5.06949863E-03  1.74961663E-01 -2.69204606E-03
  4.42222449E-08 -4.53458849E-02  9.64300189E-02  7.57878776E-04 -2.36447372E-06
  7.18964447E-04  2.23413804E-01 -9.97178043E-08 -1.10938855E-03 -1.33822241E-03
  1.63037280E-01 -7.66175316E-08 -5.14622941E-08 -1.89488580E-08 -1.42997508E-07
  2.48663902E-01 -2.14153156E-07 -8.06490401E-09 -3.78461367E-07  2.54241878E-01
  2.30365860E-02 -3.71369746E-02 -9.04412986E-02  5.83536481E-04 -1.55718444E-07
  4.00937224E-02  6.79301710E-03 -2.00870315E-03 -2.06186623E-08  2.03248618E+00
 -3.73985532E-02  3.12171488E-02  9.82375293E-02 -1.94922097E-04  1.84961481E-07
  3.05456998E-02  3.61338072E-02  1.18507178E-03  1.12574533E-07  1.11344973E-01
  1.25509044E-01  8.65414150E-02 -9.19511278E-02 -2.50372542E-01  1.16288493E-02
 -8.57608020E-07 -1.91927738E-01 -1.38858244E-01  7.26371273E-03 -7.87519270E-07
  8.18911030E-03 -2.33488286E-02  3.32376936E-01 -3.76278807E-03  2.95198654E-03
  1.33247820E-02  3.26467770E-02 -6.08076430E-07  1.59132214E-02  1.41367312E-02
  5.12320753E-04 -7.02152836E-07  7.05103797E-03 -1.24517614E-02 -2.24064532E-02
  2.77441103E-01  2.82370367E-07 -3.07489999E-07 -6.24820058E-07 -7.93802667E-07
  2.43803574E-01 -7.52056341E-07 -3.09678437E-07 -9.19877716E-07  2.49272524E-01
  6.71150902E-09 -3.51527972E-08 -5.30207975E-09  7.31744204E-08  2.44400299E-01
  4.24638564E-02  2.58068184E-02  1.89342000E-01  1.20493550E-03  1.87801951E-07
 -9.89482846E-02  4.92233679E-02  1.98750946E-03  7.65801256E-09 -3.81825687E-01
  2.32193432E-01  6.21861208E-02 -8.23559751E-03  6.32418170E-08  6.66601042E-01
 -6.89867061E-03 -3.25737396E-02 -1.35449572E-01  3.28563403E-03 -5.70787096E-07
 -5.23963551E-02 -7.79529445E-02 -2.81634874E-04 -5.45337149E-07  1.25649532E-02
  2.69056673E-03  1.71356672E-01  1.07237439E-02 -7.35819945E-08  5.66320586E-02
  9.62145937E-02  3.49240490E-03 -2.64601920E-03 -1.85370689E-03 -9.95193694E-04
 -7.55755730E-07 -1.09878990E-03  3.17304226E-03 -1.91984070E-02 -8.00723833E-07
  3.54804758E-03 -4.81334706E-03  5.05980842E-03  2.17330071E-01 -6.39563200E-08
  1.37894315E-02  2.15018652E-02  1.74693919E-01  1.79610678E-07 -2.44913919E-07
 -3.70244528E-07 -9.54305071E-07  2.42318583E-01 -6.46817863E-07 -1.80126343E-07
 -1.02534134E-06  2.47754221E-01 -3.49628200E-09  5.13621815E-08 -2.52558577E-07
 -1.07001687E-08  2.42911674E-01  1.68018759E-07 -2.00822180E-07 -1.29372950E-07
  2.41432115E-01 -6.39387497E-02  6.06122269E-02 -1.06592011E-01  1.84767237E-01
  7.69049986E-07  1.77112901E-01 -6.36152738E-02  1.34878329E-01  5.71882334E-07
  8.63552876E-03 -1.22467476E-02  3.27897003E-02 -1.21737892E-02  1.11690392E-07
 -5.29880479E-02  2.67632189E-02 -2.49816889E-02 -2.19822441E-08  1.88010052E-01
  9.46755872E-03  1.90960654E-02 -9.83452507E-02  1.61348365E-01  4.99144869E-07
  6.18555875E-02 -5.55271626E-02  1.19433979E-01  3.42140995E-07  2.07512655E-02
 -1.93971642E-02  6.45027208E-02 -3.10893028E-02 -1.49812545E-08 -4.70898482E-02
  3.33861414E-02 -3.59634857E-02 -1.50091160E-07  1.44253842E-01  1.23781497E-01
 -6.28119008E-02  5.89752174E-02 -1.15634923E-01 -1.78873327E-01 -5.86612165E-07
  1.76558900E-01 -6.53525524E-02 -1.32341968E-01 -3.64106028E-07  1.06108527E-02
 -1.62367845E-02  2.95065191E-02  7.77876627E-03  1.77080755E-07 -5.54271833E-02
  3.35507342E-02  2.34955192E-02  2.10668039E-07 -3.22468338E-02 -5.15788942E-02
  1.87368820E-01  1.10693569E-02  1.66244057E-02 -1.08820735E-01 -1.60019311E-01
 -5.94557039E-07  6.02856835E-02 -5.76792436E-02 -1.20440874E-01 -3.83552104E-07
  2.23467969E-02 -2.38990422E-02  6.53422576E-02  2.99749467E-02  2.92847945E-07
 -4.54034849E-02  4.51918731E-02  4.19826567E-02  2.88824889E-07 -5.48611409E-02
 -5.58445700E-02  1.47626732E-01  1.32092800E-01  9.31763422E-03 -1.33353505E-02
 -3.19162209E-02 -1.39219036E-02 -1.01382262E-07 -4.32372748E-02 -2.48149001E-02
 -2.38440236E-02 -1.16401503E-07 -4.02403384E-02  3.71939287E-02  9.20915024E-02
  1.52156193E-01  6.37367168E-07  1.43549041E-01  6.82056422E-02  1.32913126E-01
  5.54790218E-07 -2.33528348E-02 -2.52908261E-02  3.03806751E-02  4.97466389E-02
  1.47312222E-01  1.97385263E-02 -2.16407052E-02 -6.69778547E-02 -4.19907304E-02
 -2.28177522E-07 -5.11669650E-02 -3.98630537E-02 -4.82296227E-02 -1.97401218E-07
 -1.05309388E-02  2.04639080E-02  1.17394409E-01  1.94332076E-01  8.36949713E-07
  1.10398449E-01  8.42845163E-02  1.70129206E-01  7.26015471E-07 -3.85298784E-02
 -3.87422341E-02  5.93071641E-02  8.29058112E-02  1.76459854E-01  2.20547387E-01
  1.04526218E-02 -1.40595899E-02 -3.62104741E-02  1.57693385E-02 -6.72468975E-09
 -6.25537094E-02 -3.85409944E-02  2.53682219E-02 -1.93055497E-08 -6.72590807E-02
  6.45219632E-02  1.20520046E-01 -1.75023007E-01 -3.38713715E-07  1.86685141E-01
  5.69098351E-02 -1.28564641E-01 -3.43111765E-07  3.01047596E-02  4.52197776E-02
 -2.13755515E-02 -2.49117497E-02 -3.29630893E-02 -6.29022613E-02  1.89486491E-01
  2.16698688E-02 -2.10840870E-02 -7.00814979E-02  3.50702448E-02 -6.34379916E-08
 -5.47809660E-02 -4.65206546E-02  3.75086491E-02 -6.99313437E-08  8.68580936E-03
  2.12144007E-02  1.12392937E-01 -1.52876186E-01 -3.70676512E-07  6.58628178E-02
  4.87341818E-02 -1.16086211E-01 -4.11623244E-07  4.65963052E-02  6.01321599E-02
 -2.32896474E-02 -2.39418673E-02 -4.85198762E-02 -7.07644289E-02  1.45478679E-01
  1.26168067E-01
Mulliken Charges                           R   N=           6
 -3.82542649E-01 -3.15213621E-01  1.95896609E-01  1.91193491E-01  1.17026762E-01
  1.93639408E-01
ONIOM Charges                              I   N=          16
           0           0           0           0           0           0
           0           0           0           0           0           0
           0           0           0           0
ONIOM Multiplicities                       I   N=          16
           1           0           0           0           0           0
           0           0           0           0           0           0
           0           0           0           0
Atom Layers                                I   N=           6
           1           1           1           1           1           1
Atom Modifiers                             I   N=           6
           0           0           0           0           0           0
Force Field                                I                0
Int Atom Modified Types                    I   N=           6
           0           0           0           0           0           0
Link Atoms                                 I   N=           6
           0           0           0           0           0           0
Atom Modified MM Charges                   R   N=           6
  0.00000000E+00  0.00000000E+00  0.00000000E+00  0.00000000E+00  0.00000000E+00
  0.00000000E+00
Link Distances                             R   N=          24
  0.00000000E+00  0.00000000E+00  0.00000000E+00  0.00000000E+00  0.00000000E+00
  0.00000000E+00  0.00000000E+00  0.00000000E+00  0.00000000E+00  0.00000000E+00