                                                                        
Force     RB3LYP                                                      3-21G               
Number of atoms                            I                3
Info1-9                                    I   N=           9
          11          11           0           0           0         100
           5          18        -502
Charge                                     I                0
Multiplicity                               I                1
Number of electrons                        I               10
Number of alpha electrons                  I                5
Number of beta electrons                   I                5
Number of basis functions                  I               13
Number of independent functions            I               13
Number of point charges in /Mol/           I                0
Number of translation vectors              I                0
Atomic numbers                             I   N=           3
           8           1           1
Nuclear charges                            R   N=           3
  8.00000000E+00  1.00000000E+00  1.00000000E+00
Current cartesian coordinates              R   N=           9
  0.00000000E+00  0.00000000E+00  0.00000000E+00  1.82582731E+00  0.00000000E+00
  0.00000000E+00 -1.27038899E+00  1.23886817E+00  0.00000000E+00
Force Field                                I                0
Int Atom Types                             I   N=           3
           0           0           0
MM charges                                 R   N=           3
  0.00000000E+00  0.00000000E+00  0.00000000E+00
Integer atomic weights                     I   N=           3
          16           1           1
Real atomic weights                        R   N=           3
  1.59949146E+01  1.00782504E+00  1.00782504E+00
Atom fragment info                         I   N=           3
           0           0           0
Atom residue num                           I   N=           3
           0           0           0
Nuclear spins                              I   N=           3
           0           1           1
Nuclear ZEff                               R   N=           3
 -5.60000000E+00 -1.00000000E+00 -1.00000000E+00
Nuclear ZNuc                               R   N=           3
  8.00000000E+00  1.00000000E+00  1.00000000E+00
Nuclear QMom                               R   N=           3
  0.00000000E+00  0.00000000E+00  0.00000000E+00
Nuclear GFac                               R   N=           3
  0.00000000E+00  2.79284600E+00  2.79284600E+00
MicOpt                                     I   N=           3
          -1          -1          -1
Number of contracted shells                I                7
Number of primitive shells                 I               12
Pure/Cartesian d shells                    I                1
Pure/Cartesian f shells                    I                0
Highest angular momentum                   I                1
Largest degree of contraction              I                3
Shell types                                I   N=           7
           0          -1          -1           0           0           0
           0
Number of primitives per shell             I   N=           7
           3           2           1           2           1           2
           1
Shell to atom map                          I   N=           7
           1           1           1           2           2           3
           3
Primitive exponents                        R   N=          12
  3.22037000E+02  4.84308000E+01  1.04206000E+01  7.40294000E+00  1.57620000E+00
  3.73684000E-01  5.44717800E+00  8.24547240E-01  1.83191580E-01  5.44717800E+00
  8.24547240E-01  1.83191580E-01
Contraction coefficients                   R   N=          12
  5.92393934E-02  3.51499961E-01  7.07657921E-01 -4.04453583E-01  1.22156176E+00
  1.00000000E+00  1.56284979E-01  9.04690877E-01  1.00000000E+00  1.56284979E-01
  9.04690877E-01  1.00000000E+00
P(S=P) Contraction coefficients            R   N=          12
  0.00000000E+00  0.00000000E+00  0.00000000E+00  2.44586107E-01  8.53955373E-01
  1.00000000E+00  0.00000000E+00  0.00000000E+00  0.00000000E+00  0.00000000E+00
  0.00000000E+00  0.00000000E+00
Coordinates of each shell                  R   N=          21
  0.00000000E+00  0.00000000E+00  0.00000000E+00  0.00000000E+00  0.00000000E+00
  0.00000000E+00  0.00000000E+00  0.00000000E+00  0.00000000E+00  1.82582731E+00
  0.00000000E+00  0.00000000E+00  1.82582731E+00  0.00000000E+00  0.00000000E+00
 -1.27038899E+00  1.23886817E+00  0.00000000E+00 -1.27038899E+00  1.23886817E+00
  0.00000000E+00
Constraint Structure                       R   N=           9
  0.00000000E+00  0.00000000E+00  0.00000000E+00  1.82582731E+00  0.00000000E+00
  0.00000000E+00 -1.27038899E+00  1.23886817E+00  0.00000000E+00
Num ILSW                                   I              100
ILSW                                       I   N=         100
           0           1           0           0           2           0
           0           0           0           0         402          -1
           0           0           0           0           2           0
           0           0           1           0           1           0
           1           1           0           0           0           0
           0           0      100000           0          -1           0
           0           0           0           0           0           0
           0           0           0           1           0           0
           0           0           1           0           0           0
           0           0           4          41           0           0
           0           0           5           0           0           0
           0           0           0           0           0           0
           0           0           0           0           0           0
           0           0           0           0           0           0
           0           0           0           0           0           0
           0           0           0           0           0           0
           0           0           0           0
Num RLSW                                   I               41
RLSW                                       R   N=          41
  8.00000000E-01  7.20000000E-01  1.00000000E+00  8.10000000E-01  2.00000000E-01
  0.00000000E+00  0.00000000E+00  1.00000000E+00  0.00000000E+00  0.00000000E+00
  0.00000000E+00  0.00000000E+00  1.00000000E+00  0.00000000E+00  0.00000000E+00
  0.00000000E+00  0.00000000E+00  1.00000000E+00  0.00000000E+00  0.00000000E+00
  0.00000000E+00  0.00000000E+00  1.00000000E+00  0.00000000E+00  0.00000000E+00
  0.00000000E+00  0.00000000E+00  1.00000000E+00  0.00000000E+00  0.00000000E+00
  0.00000000E+00  0.00000000E+00  1.00000000E+00  0.00000000E+00  0.00000000E+00
  0.00000000E+00  0.00000000E+00  0.00000000E+00  1.00000000E+00  1.00000000E+00
  0.00000000E+00
MxBond                                     I                2
NBond                                      I   N=           3
           2           1           1
IBond                                      I   N=           6
           2           3           1           0           1           0
RBond                                      R   N=           6
  1.00000000E+00  1.00000000E+00  1.00000000E+00  0.00000000E+00  1.00000000E+00
  0.00000000E+00
Virial Ratio                               R      2.006077979437045E+00
SCF Energy                                 R     -7.595178952058473E+01
Total Energy                               R     -7.595178952058473E+01
RMS Force                                  R      3.219630444005075E-02
RMS Density                                R      2.268608796751361E-09
External E-field                           R   N=          35
  0.00000000E+00  0.00000000E+00  0.00000000E+00  0.00000000E+00  0.00000000E+00
  0.00000000E+00  0.00000000E+00  0.00000000E+00  0.00000000E+00  0.00000000E+00
  0.00000000E+00  0.00000000E+00  0.00000000E+00  0.00000000E+00  0.00000000E+00
  0.00000000E+00  0.00000000E+00  0.00000000E+00  0.00000000E+00  0.00000000E+00
  0.00000000E+00  0.00000000E+00  0.00000000E+00  0.00000000E+00  0.00000000E+00
  0.00000000E+00  0.00000000E+00  0.00000000E+00  0.00000000E+00  0.00000000E+00
  0.00000000E+00  0.00000000E+00  0.00000000E+00  0.00000000E+00  0.00000000E+00
IOpCl                                      I                0
IROHF                                      I                0
Alpha Orbital Energies                     R   N=          13
 -1.89646266E+01 -9.55255827E-01 -5.44041284E-01 -2.62322978E-01 -2.40733734E-01
  9.61872153E-02  2.10515958E-01  8.58057101E-01  1.10642279E+00  1.45576489E+00
  1.47736269E+00  1.77849198E+00  2.72260265E+00
Alpha MO coefficients                      R   N=         169
  9.82149334E-01  1.02487612E-01  9.09469890E-04  2.44046241E-03  3.67939917E-17
 -4.19896800E-02 -1.37246717E-03 -3.99696932E-03 -5.08154954E-17  1.39489597E-03
  7.79530486E-03  1.32232763E-03  8.41319754E-03 -2.28953343E-01  2.19415298E-01
  2.61603202E-02  8.37997790E-02 -3.51563965E-16  6.81837621E-01  2.79086622E-02
  7.60204758E-02 -3.70202191E-17  1.23327890E-01  3.17790516E-02  1.35704121E-01
  3.18143840E-02 -3.43189720E-03  2.32328135E-03  3.72839139E-01 -1.52572182E-01
 -8.22439331E-16  1.62017346E-02  3.00161982E-01 -1.20755244E-01 -9.49088250E-16
  2.40496258E-01  1.77228467E-01 -2.42275098E-01 -1.68653407E-01  7.60039391E-02
 -6.39553486E-02  1.80239384E-01  4.45481614E-01  1.71352488E-14 -3.49394953E-01
  2.12007618E-01  5.21166373E-01  2.12848318E-14  8.84245262E-02  9.63693565E-02
  8.78324825E-02  8.97767985E-02 -2.79461308E-15  2.34420116E-15 -5.47982240E-15
 -1.52195434E-14  5.23553317E-01  1.30896059E-14 -6.81623619E-15 -1.76189627E-14
  6.29981445E-01 -2.62962123E-15 -3.07299885E-15 -3.26589823E-15 -4.65810285E-15
 -1.29811376E-01  6.86182490E-02  8.85990982E-02  1.62099901E-01 -4.22129150E-16
  1.09764848E+00  1.56130588E-01  2.85933454E-01 -1.05971275E-15 -1.41433160E-01
 -8.71871751E-01 -1.31201492E-01 -7.94108412E-01  6.88979747E-03 -2.92682956E-03
  3.21129765E-01 -1.36812851E-01  1.01978977E-16 -7.84153852E-02  7.18890525E-01
 -3.05445852E-01  1.19872785E-15 -4.23022707E-02 -1.04766523E+00  3.91968845E-02
  1.16079751E+00  5.17308558E-02 -4.28907375E-02 -5.87621526E-02 -1.05339640E-01
  2.33972276E-16 -2.88270989E-02 -4.54179928E-02 -1.83648432E-01 -6.67525164E-16
  9.71119537E-01 -6.48412242E-01  8.92433392E-01 -5.32547668E-01  4.69345536E-03
  9.64748219E-04  3.89288081E-01 -1.59654526E-01  1.22120698E-15 -3.81916429E-02
  2.82503983E-01 -1.46335405E-01 -3.59612765E-16 -9.21261337E-01  6.41855245E-01
  1.02917415E+00 -6.69995027E-01  5.57040160E-16 -7.21358956E-16  8.79195259E-15
  2.05306258E-14  1.02812401E+00 -4.04538167E-15 -9.31642770E-15 -2.02824702E-14
 -9.66576657E-01  3.52469681E-15  1.42220248E-15  1.89462126E-16  4.10639407E-15
 -2.40752234E-02  3.00171817E-02 -3.75319508E-01 -9.55204956E-01  2.24399635E-14
  1.76487444E-01  3.72443647E-01  9.66399342E-01 -2.11425989E-14 -1.08060454E-01
 -9.26328700E-02 -1.01740684E-01 -1.20418794E-01  1.42839808E-03  1.12658146E-03
 -9.30570855E-01  3.66146490E-01  1.30795470E-15 -3.03550811E-02  1.62504448E+00
 -6.55898859E-01 -1.08479161E-15 -4.69843536E-01 -4.41345891E-01  4.64660178E-01
  4.68727236E-01  9.61653047E-02 -1.63649848E+00 -2.20517366E-02 -6.05952245E-02
 -5.11371252E-17  1.95122380E+00  7.19642344E-02  2.25220469E-01 -6.76068992E-17
 -1.47680114E-01 -3.88803414E-01 -1.49989271E-01 -4.25555770E-01
Total SCF Density                          R   N=          91
  2.04565065E+00  9.11068850E-02  1.25484936E-01  1.46462001E-02 -9.65575713E-03
  3.44360898E-01  3.51852569E-02 -2.04166587E-02  5.12057982E-02  4.57520996E-01
 -8.26621431E-17  1.12290271E-16 -1.92667266E-16 -4.77387929E-16  5.48216151E-01
 -4.47920269E-01  3.35370999E-01 -7.82703763E-02 -2.02171188E-01  1.22311531E-15
  1.17801001E+00  1.46910796E-02 -1.37574677E-02  3.01706218E-01  1.01969035E-01
 -3.85173946E-16 -1.00248883E-01  2.71650445E-01  3.73887080E-02 -3.46830199E-02
  1.01795019E-01  5.13909345E-01 -4.43420231E-16 -2.64095786E-01  1.52744447E-01
  5.83982612E-01 -3.61997310E-16  1.99977265E-16  5.86132350E-17  7.10988500E-17
  6.59657750E-01  1.54182216E-15 -1.34798969E-16  2.10630466E-16  7.93753241E-01
 -4.19421656E-02  4.42130088E-02  2.17663132E-01  2.60734316E-02 -2.05341115E-16
  1.14064795E-01  1.88749017E-01  5.28251494E-02 -1.48001911E-17  1.61738123E-01
  1.41929084E-02  4.04029609E-03  1.68571404E-01  3.71454884E-02 -2.28422092E-16
 -1.89174553E-02  1.49008995E-01  6.24158045E-02 -1.09009510E-16  1.10148630E-01
  8.35353142E-02 -4.45282220E-02  4.74617040E-02 -1.41895001E-01  1.74934798E-01
 -1.06487723E-16  1.15718295E-01 -1.00630225E-01  1.70684663E-01  7.37875807E-17
 -6.75235228E-02 -6.03016560E-02  1.69658250E-01  1.67623965E-02  3.41855064E-03
 -9.17187001E-02  1.36824604E-01 -1.54517091E-15 -2.55221231E-02 -6.14272511E-02
  1.39078698E-01 -1.73034527E-15 -5.73734119E-02 -4.03236758E-02  1.06148615E-01
  7.51735640E-02
Mulliken Charges                           R   N=           3
 -7.39891988E-01  3.68672736E-01  3.71219252E-01
ONIOM Charges                              I   N=          16
           0           0           0           0           0           0
           0           0           0           0           0           0
           0           0           0           0
ONIOM Multiplicities                       I   N=          16
           1           0           0           0           0           0
           0           0           0           0           0           0
           0           0           0           0
Atom Layers                                I   N=           3
           1           1           1
Atom Modifiers                             I   N=           3
           0           0           0
Force Field                                I                0
Int Atom Modified Types                    I   N=           3
           0           0           0
Link Atoms                                 I   N=           3
           0           0           0
Atom Modified MM Charges                   R   N=           3
  0.00000000E+00  0.00000000E+00  0.00000000E+00
Link Distances                             R   N=          12
  0.00000000E+00  0.00000000E+00  0.00000000E+00  0.00000000E+00  0.00000000E+00
  0.00000000E+00  0.00000000E+00  0.00000000E+00  0.00000000E+00  0.00000000E+00
  0.00000000E+00  0.00000000E+00
Cartesian Gradient                         R   N=           9
  1.22806995E-03  7.84966691E-02  2.10285825E-16  2.58983711E-04 -3.28046933E-02
  1.91411418E-17 -1.48705367E-03 -4.56919758E-02 -2.29426967E-16
Dipole Moment                              R   N=           3
  2.65073423E-01  6.25910378E-01 -5.44361109E-16
Quadrupole Moment                          R   N=           6
  1.41780085E+00 -3.16950833E-01 -1.10085001E+00 -8.10616362E-01 -6.01635986E-16
  9.43342050E-16
QEq coupling tensors                       R   N=          18
 -1.91577731E+00  9.68505420E-01  1.85212617E-01  5.45319099E-16 -5.31788672E-16
  1.73056469E+00 -5.48632732E-01 -6.09996125E-04  2.56978416E-01 -3.74308984E-16
 -3.84544207E-17  2.91654316E-01 -1.81011330E-01  4.73156393E-01 -1.60100838E-01
  1.01117647E-16 -9.86087211E-17  3.41112169E-01
