hessian                                                                 
Freq      RB3LYP                                                      3-21G               
Number of atoms                            I                3
Info1-9                                    I   N=           9
          12          12           0           0           0         100
           6          18        -502
Charge                                     I                0
Multiplicity                               I                1
Number of electrons                        I               10
Number of alpha electrons                  I                5
Number of beta electrons                   I                5
Number of basis functions                  I               13
Number of independent functions            I               13
Number of point charges in /Mol/           I                0
Number of translation vectors              I                0
Atomic numbers                             I   N=           3
           8           1           1
Nuclear charges                            R   N=           3
  8.00000000E+00  1.00000000E+00  1.00000000E+00
Current cartesian coordinates              R   N=           9
  0.00000000E+00  0.00000000E+00  0.00000000E+00  1.88352273E+00  0.00000000E+00
  0.00000000E+00 -4.50871081E-01  1.82876281E+00  0.00000000E+00
Force Field                                I                0
Int Atom Types                             I   N=           3
           0           0           0
MM charges                                 R   N=           3
  0.00000000E+00  0.00000000E+00  0.00000000E+00
Integer atomic weights                     I   N=           3
          16           1           1
Real atomic weights                        R   N=           3
  1.59949146E+01  1.00782504E+00  1.00782504E+00
Atom fragment info                         I   N=           3
           0           0           0
Atom residue num                           I   N=           3
           0           0           0
Nuclear spins                              I   N=           3
           0           1           1
Nuclear ZEff                               R   N=           3
 -5.60000000E+00 -1.00000000E+00 -1.00000000E+00
Nuclear ZNuc                               R   N=           3
  8.00000000E+00  1.00000000E+00  1.00000000E+00
Nuclear QMom                               R   N=           3
  0.00000000E+00  0.00000000E+00  0.00000000E+00
Nuclear GFac                               R   N=           3
  0.00000000E+00  2.79284600E+00  2.79284600E+00
MicOpt                                     I   N=           3
          -1          -1          -1
Number of contracted shells                I                7
Number of primitive shells                 I               12
Pure/Cartesian d shells                    I                1
Pure/Cartesian f shells                    I                0
Highest angular momentum                   I                1
Largest degree of contraction              I                3
Shell types                                I   N=           7
           0          -1          -1           0           0           0
           0
Number of primitives per shell             I   N=           7
           3           2           1           2           1           2
           1
Shell to atom map                          I   N=           7
           1           1           1           2           2           3
           3
Primitive exponents                        R   N=          12
  3.22037000E+02  4.84308000E+01  1.04206000E+01  7.40294000E+00  1.57620000E+00
  3.73684000E-01  5.44717800E+00  8.24547240E-01  1.83191580E-01  5.44717800E+00
  8.24547240E-01  1.83191580E-01
Contraction coefficients                   R   N=          12
  5.92393934E-02  3.51499961E-01  7.07657921E-01 -4.04453583E-01  1.22156176E+00
  1.00000000E+00  1.56284979E-01  9.04690877E-01  1.00000000E+00  1.56284979E-01
  9.04690877E-01  1.00000000E+00
P(S=P) Contraction coefficients            R   N=          12
  0.00000000E+00  0.00000000E+00  0.00000000E+00  2.44586107E-01  8.53955373E-01
  1.00000000E+00  0.00000000E+00  0.00000000E+00  0.00000000E+00  0.00000000E+00
  0.00000000E+00  0.00000000E+00
Coordinates of each shell                  R   N=          21
  0.00000000E+00  0.00000000E+00  0.00000000E+00  0.00000000E+00  0.00000000E+00
  0.00000000E+00  0.00000000E+00  0.00000000E+00  0.00000000E+00  1.88352273E+00
  0.00000000E+00  0.00000000E+00  1.88352273E+00  0.00000000E+00  0.00000000E+00
 -4.50871081E-01  1.82876281E+00  0.00000000E+00 -4.50871081E-01  1.82876281E+00
  0.00000000E+00
Constraint Structure                       R   N=           9
  0.00000000E+00  0.00000000E+00  0.00000000E+00  1.88352273E+00  0.00000000E+00
  0.00000000E+00 -4.50871081E-01  1.82876281E+00  0.00000000E+00
Num ILSW                                   I              100
ILSW                                       I   N=         100
           0           1           0           0           2           0
           0           0           0           0         402          -1
           0           0           0           0           2           0
           0           0           1           0           1           0
           1           1           0           0           0           0
           0           0      100000           0          -1           0
           0           0           0           0           0           0
           0           0           0           1           0           0
           0           0           1           0           0           0
           0           0           4          41           0           0
           0           0           5           0           0           0
           0           0           0           0           0           0
           0           0           0           0           0           0
           0           0           0           0           0           0
           0           0           0           0           0           0
           0           0           0           0           0           0
           0           0           0           0
Num RLSW                                   I               41
RLSW                                       R   N=          41
  8.00000000E-01  7.20000000E-01  1.00000000E+00  8.10000000E-01  2.00000000E-01
  0.00000000E+00  0.00000000E+00  1.00000000E+00  0.00000000E+00  0.00000000E+00
  0.00000000E+00  0.00000000E+00  1.00000000E+00  0.00000000E+00  0.00000000E+00
  0.00000000E+00  0.00000000E+00  1.00000000E+00  0.00000000E+00  0.00000000E+00
  0.00000000E+00  0.00000000E+00  1.00000000E+00  0.00000000E+00  0.00000000E+00
  0.00000000E+00  0.00000000E+00  1.00000000E+00  0.00000000E+00  0.00000000E+00
  0.00000000E+00  0.00000000E+00  1.00000000E+00  0.00000000E+00  0.00000000E+00
  0.00000000E+00  0.00000000E+00  0.00000000E+00  1.00000000E+00  1.00000000E+00
  0.00000000E+00
MxBond                                     I                2
NBond                                      I   N=           3
           2           1           1
IBond                                      I   N=           6
           2           3           1           0           1           0
RBond                                      R   N=           6
  1.00000000E+00  1.00000000E+00  1.00000000E+00  0.00000000E+00  1.00000000E+00
  0.00000000E+00
Virial Ratio                               R      2.007091541765375E+00
SCF Energy                                 R     -7.597396461116752E+01
Total Energy                               R     -7.597396461116752E+01
RMS Force                                  R      1.026296789688526E-04
RMS Density                                R      9.617124860355665E-09
External E-field                           R   N=          35
  0.00000000E+00  0.00000000E+00  0.00000000E+00  0.00000000E+00  0.00000000E+00
  0.00000000E+00  0.00000000E+00  0.00000000E+00  0.00000000E+00  0.00000000E+00
  0.00000000E+00  0.00000000E+00  0.00000000E+00  0.00000000E+00  0.00000000E+00
  0.00000000E+00  0.00000000E+00  0.00000000E+00  0.00000000E+00  0.00000000E+00
  0.00000000E+00  0.00000000E+00  0.00000000E+00  0.00000000E+00  0.00000000E+00
  0.00000000E+00  0.00000000E+00  0.00000000E+00  0.00000000E+00  0.00000000E+00
  0.00000000E+00  0.00000000E+00  0.00000000E+00  0.00000000E+00  0.00000000E+00
IOpCl                                      I                0
IROHF                                      I                0
Alpha Orbital Energies                     R   N=          13
 -1.90033204E+01 -9.75895100E-01 -4.92315850E-01 -3.27125884E-01 -2.56900210E-01
  8.72209184E-02  1.76589006E-01  9.12724434E-01  9.75319200E-01  1.43850662E+00
  1.52795862E+00  1.64414328E+00  2.73041170E+00
Alpha MO coefficients                      R   N=         169
  9.82189925E-01  1.02311185E-01  2.17632092E-03  2.77806142E-03  2.64856764E-17
 -4.12120775E-02 -4.33290038E-03 -5.53090087E-03 -1.92022132E-18  2.70759129E-03
  7.07943201E-03  2.70759153E-03  7.07943343E-03 -2.26339381E-01  2.16748713E-01
  7.03220010E-02  8.97651665E-02 -9.01963554E-17  6.85393830E-01  6.94107528E-02
  8.86019701E-02  1.04036118E-16  1.19331908E-01  3.02866934E-02  1.19331935E-01
  3.02865983E-02  3.76237381E-08 -1.10160061E-08  3.20560338E-01 -2.51126704E-01
  1.18002642E-15 -2.17769252E-07  2.72541666E-01 -2.13509003E-01  1.01632403E-15
  2.31122311E-01  2.11602777E-01 -2.31122295E-01 -2.11602563E-01 -1.05076287E-01
  8.98646544E-02 -2.69173897E-01 -3.43597335E-01 -3.05394361E-16  4.76694146E-01
 -2.91096119E-01 -3.71580998E-01 -4.29666140E-16 -1.33734996E-01 -1.36973481E-01
 -1.33735154E-01 -1.36973132E-01 -1.17161086E-16  1.80438489E-16 -8.54949430E-16
  4.49662187E-16  5.30551671E-01  5.13092881E-16 -1.19895161E-15  6.23515091E-16
  6.23375950E-01 -3.35519505E-16 -7.84499685E-16 -3.76622701E-16  3.18860488E-16
 -1.08383286E-01  5.77917388E-02  1.66078388E-01  2.11995566E-01 -1.26483686E-16
  9.46661523E-01  2.92427311E-01  3.73276714E-01 -6.89371974E-16 -9.46266795E-02
 -7.99511572E-01 -9.46265892E-02 -7.99505579E-01  3.20023058E-07 -2.33453616E-07
  2.93485368E-01 -2.29917148E-01  5.99828553E-16 -2.49730966E-06  5.74353658E-01
 -4.49949989E-01  3.13928056E-16 -9.98471921E-02 -1.04034740E+00  9.98482636E-02
  1.04035137E+00  2.58405425E-07 -4.17559000E-07 -1.65798527E-01  1.29884994E-01
  4.29931083E-16 -9.88256728E-08 -1.88865934E-01  1.47956234E-01  4.76100209E-16
  9.37784665E-01 -8.31643526E-01 -9.37776528E-01  8.31639117E-01  5.30480546E-02
 -9.90965227E-02 -1.97140309E-01 -2.51648373E-01 -8.22907979E-16  5.81617099E-02
 -8.90289958E-02 -1.13645962E-01  1.28264722E-15  9.36709325E-01 -5.76630375E-01
  9.36717191E-01 -5.76637896E-01  3.61553646E-16 -6.81242794E-16  2.05400606E-15
  2.18303296E-15  1.02453013E+00 -1.10239124E-15 -2.96942598E-15 -3.44596838E-15
 -9.70849875E-01  2.52897082E-15 -8.65975053E-17  2.96897193E-15 -9.93412056E-16
 -5.09041063E-02  1.46627172E-01 -6.06996000E-01 -7.74821762E-01  3.94712951E-15
  1.55805227E-01  7.21273948E-01  9.20695678E-01 -3.87637153E-15 -3.20322087E-01
 -5.82020987E-02 -3.20322159E-01 -5.82008548E-02  3.35574883E-08 -8.54580632E-09
 -8.14478489E-01  6.38063049E-01 -5.25556820E-16 -3.02169811E-07  1.11995181E+00
 -8.77370830E-01 -7.04733207E-16 -2.01630733E-01 -4.55061672E-01  2.01631129E-01
  4.55061991E-01  9.00717507E-02 -1.62666295E+00 -9.61641781E-02 -1.22752293E-01
 -8.65181805E-17  1.92738310E+00  2.97907770E-01  3.80275542E-01 -2.83246509E-16
 -2.79262087E-01 -3.39382465E-01 -2.79262110E-01 -3.39382358E-01
Total SCF Density                          R   N=          91
  2.05393518E+00  8.39752029E-02  1.31046478E-01  2.90094559E-02 -1.74487152E-02
  3.60326875E-01  3.70302287E-02 -2.22730839E-02  3.66093690E-02  3.78378506E-01
  3.27173835E-17  1.02895214E-16  1.18772737E-18  7.82853098E-17  5.62970151E-01
 -4.91397906E-01  3.74359457E-01 -1.60410232E-01 -2.04761563E-01  1.27461538E-16
  1.39740089E+00  2.12423832E-02 -2.31157360E-02  3.41186398E-01  7.55919822E-02
 -4.63951312E-16 -1.82023211E-01  3.27705074E-01  2.71156666E-02 -2.95070114E-02
  7.55920363E-02  3.78460116E-01  3.68402772E-16 -2.32350513E-01  1.12299163E-01
  3.83078865E-01 -1.06642270E-16  1.92444877E-16 -1.68389955E-16  3.64096225E-16
  6.61466303E-01  3.72830114E-16 -6.76206520E-16  6.81148359E-16  7.77195149E-01
 -2.05955115E-02  2.82480050E-02  2.36968335E-01 -2.74125103E-03  2.49740645E-16
  3.58540553E-02  2.20382768E-01  2.18095121E-02  1.91222798E-16  1.71100015E-01
  2.89818962E-02 -1.00403400E-02  2.13692743E-01 -6.67405556E-03 -2.54468136E-16
 -8.96558960E-02  1.99229140E-01  1.67239001E-02 -4.23982130E-16  1.41715216E-01
  1.29009744E-01 -2.05955250E-02  2.82479987E-02 -5.93861505E-02  2.29422791E-01
 -8.84795697E-16  3.58541435E-02 -3.15789662E-02  2.19196404E-01 -7.99603154E-16
 -4.25700200E-02 -5.39092237E-02  1.71100097E-01  2.89818369E-02 -1.00403089E-02
 -5.76331521E-02  2.05882012E-01 -8.24761304E-17 -8.96555096E-02 -3.14532533E-02
  1.97439924E-01  9.14064240E-17 -5.39092926E-02 -5.00932078E-02  1.41715039E-01
  1.29009360E-01
Mulliken Charges                           R   N=           3
 -6.38087860E-01  3.19043764E-01  3.19044096E-01
ONIOM Charges                              I   N=          16
           0           0           0           0           0           0
           0           0           0           0           0           0
           0           0           0           0
ONIOM Multiplicities                       I   N=          16
           1           0           0           0           0           0
           0           0           0           0           0           0
           0           0           0           0
Atom Layers                                I   N=           3
           1           1           1
Atom Modifiers                             I   N=           3
           0           0           0
Force Field                                I                0
Int Atom Modified Types                    I   N=           3
           0           0           0
Link Atoms                                 I   N=           3
           0           0           0
Atom Modified MM Charges                   R   N=           3
  0.00000000E+00  0.00000000E+00  0.00000000E+00
Link Distances                             R   N=          12
  0.00000000E+00  0.00000000E+00  0.00000000E+00  0.00000000E+00  0.00000000E+00
  0.00000000E+00  0.00000000E+00  0.00000000E+00  0.00000000E+00  0.00000000E+00
  0.00000000E+00  0.00000000E+00
Cartesian Gradient                         R   N=           9
 -1.46815037E-04 -1.81898290E-04 -3.88446269E-15  8.95932684E-06  1.38520438E-04
  2.36841744E-16  1.37855710E-04  4.33778521E-05  3.64762094E-15
Cartesian Force Constants                  R   N=          45
  4.81818982E-01 -9.22012495E-02  4.36147849E-01  5.19368217E-12 -3.19235523E-12
  1.78522606E-04 -4.15509567E-01  4.02261745E-02 -3.39743569E-12  4.35604070E-01
 -3.40958615E-02 -4.35140169E-02  1.06102962E-12 -2.35504295E-02  5.35110564E-02
 -9.39934191E-12 -3.47386560E-12 -4.91972515E-05  8.02259779E-12  1.89641938E-12
 -3.81313540E-05 -6.63094147E-02  5.19750750E-02 -2.06472856E-12 -2.00945021E-02
  5.76462910E-02  1.68260929E-12  8.64039168E-02  1.26297111E-01 -3.92633832E-01
  2.72397440E-12 -1.66757450E-02 -9.99703949E-03  1.86248073E-12 -1.09621366E-01
  4.02630871E-01  4.87491521E-12  6.53242424E-12 -1.29325355E-04 -4.96750005E-12
 -3.02531382E-12  8.73286060E-05  5.52017461E-14 -4.38479372E-12  4.19967492E-05
Dipole Moment                              R   N=           3
  5.43440724E-01  6.93696468E-01 -8.22394059E-17
Dipole Derivatives                         R   N=          27
 -1.89652630E-01  4.33335031E-02  7.44991387E-12  4.33307829E-02 -1.68311878E-01
  1.66108973E-12 -6.58765136E-11  3.38937467E-11 -7.58657114E-01 -7.71300805E-02
 -3.15791715E-02 -7.02639746E-12 -9.65350056E-02  2.56102847E-01 -7.81259639E-13
  1.23961571E-10 -1.50953294E-11  3.79331212E-01  2.66782710E-01 -1.17543317E-02
 -3.01373530E-13  5.32042229E-02 -8.77909690E-02 -8.99612359E-13 -6.10815664E-11
 -1.87147228E-11  3.79325902E-01
Polarizability                             R   N=           6
  6.37364595E+00 -1.46010048E+00  5.65360298E+00  1.55696189E-11  2.20961567E-11
  8.00285341E-01
QEq coupling tensors                       R   N=          18
 -1.26871978E+00  6.91576443E-01 -9.27711154E-01  0.00000000E+00  0.00000000E+00
  2.19643093E+00 -4.71166321E-01  2.57735214E-02  2.04247889E-01  0.00000000E+00
  0.00000000E+00  2.66918432E-01  1.53565430E-01  1.79797497E-01 -4.20483766E-01
  0.00000000E+00  0.00000000E+00  2.66918336E-01
