                                                                        
Force     RB3LYP                                                      3-21G               
Number of atoms                            I                3
Info1-9                                    I   N=           9
          11          11           0           0           0         100
           5          18        -502
Charge                                     I                0
Multiplicity                               I                1
Number of electrons                        I               10
Number of alpha electrons                  I                5
Number of beta electrons                   I                5
Number of basis functions                  I               13
Number of independent functions            I               13
Number of point charges in /Mol/           I                0
Number of translation vectors              I                0
Atomic numbers                             I   N=           3
           8           1           1
Nuclear charges                            R   N=           3
  8.00000000E+00  1.00000000E+00  1.00000000E+00
Current cartesian coordinates              R   N=           9
  0.00000000E+00  0.00000000E+00  0.00000000E+00 -5.71491185E+00  0.00000000E+00
  0.00000000E+00 -2.03376896E+01  4.70170892E+00  0.00000000E+00
Force Field                                I                0
Int Atom Types                             I   N=           3
           0           0           0
MM charges                                 R   N=           3
  0.00000000E+00  0.00000000E+00  0.00000000E+00
Integer atomic weights                     I   N=           3
          16           1           1
Real atomic weights                        R   N=           3
  1.59949146E+01  1.00782504E+00  1.00782504E+00
Atom fragment info                         I   N=           3
           0           0           0
Atom residue num                           I   N=           3
           0           0           0
Nuclear spins                              I   N=           3
           0           1           1
Nuclear ZEff                               R   N=           3
 -5.60000000E+00 -1.00000000E+00 -1.00000000E+00
Nuclear ZNuc                               R   N=           3
  8.00000000E+00  1.00000000E+00  1.00000000E+00
Nuclear QMom                               R   N=           3
  0.00000000E+00  0.00000000E+00  0.00000000E+00
Nuclear GFac                               R   N=           3
  0.00000000E+00  2.79284600E+00  2.79284600E+00
MicOpt                                     I   N=           3
          -1          -1          -1
Number of contracted shells                I                7
Number of primitive shells                 I               12
Pure/Cartesian d shells                    I                1
Pure/Cartesian f shells                    I                0
Highest angular momentum                   I                1
Largest degree of contraction              I                3
Shell types                                I   N=           7
           0          -1          -1           0           0           0
           0
Number of primitives per shell             I   N=           7
           3           2           1           2           1           2
           1
Shell to atom map                          I   N=           7
           1           1           1           2           2           3
           3
Primitive exponents                        R   N=          12
  3.22037000E+02  4.84308000E+01  1.04206000E+01  7.40294000E+00  1.57620000E+00
  3.73684000E-01  5.44717800E+00  8.24547240E-01  1.83191580E-01  5.44717800E+00
  8.24547240E-01  1.83191580E-01
Contraction coefficients                   R   N=          12
  5.92393934E-02  3.51499961E-01  7.07657921E-01 -4.04453583E-01  1.22156176E+00
  1.00000000E+00  1.56284979E-01  9.04690877E-01  1.00000000E+00  1.56284979E-01
  9.04690877E-01  1.00000000E+00
P(S=P) Contraction coefficients            R   N=          12
  0.00000000E+00  0.00000000E+00  0.00000000E+00  2.44586107E-01  8.53955373E-01
  1.00000000E+00  0.00000000E+00  0.00000000E+00  0.00000000E+00  0.00000000E+00
  0.00000000E+00  0.00000000E+00
Coordinates of each shell                  R   N=          21
  0.00000000E+00  0.00000000E+00  0.00000000E+00  0.00000000E+00  0.00000000E+00
  0.00000000E+00  0.00000000E+00  0.00000000E+00  0.00000000E+00 -5.71491185E+00
  0.00000000E+00  0.00000000E+00 -5.71491185E+00  0.00000000E+00  0.00000000E+00
 -2.03376896E+01  4.70170892E+00  0.00000000E+00 -2.03376896E+01  4.70170892E+00
  0.00000000E+00
Constraint Structure                       R   N=           9
  0.00000000E+00  0.00000000E+00  0.00000000E+00 -5.71491185E+00  0.00000000E+00
  0.00000000E+00 -2.03376896E+01  4.70170892E+00  0.00000000E+00
Num ILSW                                   I              100
ILSW                                       I   N=         100
           0           1           0           0           2           0
           0           0           0           0         402          -1
           0           0           0           0           2           0
           0           0           1           0           1           0
           1           1           0           0           0           0
           0           0      100000           0          -1           0
           0           0           0           0           0           0
           0           0           0           1           0           0
           0           0           1           0           0           0
           0           0           4          41           0           0
           0           0           5           0           0           0
           0           0           0           0           0           0
           0           0           0           0           0           0
           0           0           0           0           0           0
           0           0           0           0           0           0
           0           0           0           0           0           0
           0           0           0           0
Num RLSW                                   I               41
RLSW                                       R   N=          41
  8.00000000E-01  7.20000000E-01  1.00000000E+00  8.10000000E-01  2.00000000E-01
  0.00000000E+00  0.00000000E+00  1.00000000E+00  0.00000000E+00  0.00000000E+00
  0.00000000E+00  0.00000000E+00  1.00000000E+00  0.00000000E+00  0.00000000E+00
  0.00000000E+00  0.00000000E+00  1.00000000E+00  0.00000000E+00  0.00000000E+00
  0.00000000E+00  0.00000000E+00  1.00000000E+00  0.00000000E+00  0.00000000E+00
  0.00000000E+00  0.00000000E+00  1.00000000E+00  0.00000000E+00  0.00000000E+00
  0.00000000E+00  0.00000000E+00  1.00000000E+00  0.00000000E+00  0.00000000E+00
  0.00000000E+00  0.00000000E+00  0.00000000E+00  1.00000000E+00  1.00000000E+00
  0.00000000E+00
MxBond                                     I                1
NBond                                      I   N=           3
           0           0           0
IBond                                      I   N=           3
           0           0           0
RBond                                      R   N=           3
  0.00000000E+00  0.00000000E+00  0.00000000E+00
Virial Ratio                               R      1.953875517152624E+00
SCF Energy                                 R     -7.447823542740436E+01
Total Energy                               R     -7.447823542740436E+01
RMS Force                                  R      1.975394389004542E-02
RMS Density                                R      2.842478931554424E-09
External E-field                           R   N=          35
  0.00000000E+00  0.00000000E+00  0.00000000E+00  0.00000000E+00  0.00000000E+00
  0.00000000E+00  0.00000000E+00  0.00000000E+00  0.00000000E+00  0.00000000E+00
  0.00000000E+00  0.00000000E+00  0.00000000E+00  0.00000000E+00  0.00000000E+00
  0.00000000E+00  0.00000000E+00  0.00000000E+00  0.00000000E+00  0.00000000E+00
  0.00000000E+00  0.00000000E+00  0.00000000E+00  0.00000000E+00  0.00000000E+00
  0.00000000E+00  0.00000000E+00  0.00000000E+00  0.00000000E+00  0.00000000E+00
  0.00000000E+00  0.00000000E+00  0.00000000E+00  0.00000000E+00  0.00000000E+00
IOpCl                                      I                0
IROHF                                      I                0
Alpha Orbital Energies                     R   N=          13
 -1.90934299E+01 -8.33000781E-01 -2.49937822E-01 -2.16263542E-01 -2.13540411E-01
 -1.80226545E-01 -1.64271572E-01  9.39536672E-01  9.41670726E-01  1.43922613E+00
  1.44169373E+00  1.44977928E+00  2.22183511E+00
Alpha MO coefficients                      R   N=         169
  9.81828143E-01  9.62925098E-02 -5.17163115E-07  1.61833066E-05 -9.11887470E-16
 -2.69831105E-02  1.91494002E-05 -5.60016866E-06  8.60105584E-16 -3.08337924E-04
  5.04302360E-04  1.76038212E-13 -2.73094868E-13 -2.55695287E-01  2.58981385E-01
  4.98517700E-04  3.14785668E-04  5.82368482E-16  8.12200095E-01  7.14919855E-04
  3.55481746E-04 -9.44935538E-17 -1.11032883E-03  8.91187654E-03 -3.55251760E-12
  1.86465204E-11  4.69277714E-04 -7.84965458E-04 -2.61008368E-01  4.89370917E-01
 -2.58120497E-15 -1.26271530E-03 -2.81350165E-01  5.23846591E-01 -2.48555418E-15
  2.19278140E-02  7.44497421E-02  2.71791248E-10  1.12086846E-09 -1.60737681E-03
  2.96085108E-03  4.31448702E-01  2.57449717E-01  5.12342279E-14  3.94529664E-03
  4.80778168E-01  2.82610923E-01  5.59341991E-14 -1.09384193E-01 -3.01215108E-01
 -2.87814003E-09 -9.21939893E-09  2.42034651E-16 -3.63880579E-16 -3.81653677E-14
 -2.03452954E-14  5.50498659E-01 -6.82394380E-16 -4.37510361E-14 -2.22938357E-14
  6.04258449E-01  1.20871731E-14  3.32844186E-14  6.75526421E-16 -3.36955702E-16
  2.14191875E-10 -3.75808000E-10  1.63900512E-08  5.23388737E-09 -5.97923785E-16
 -5.41545011E-10  1.76339080E-08  5.83195546E-09 -8.52316698E-16  1.22986476E-08
  3.28301660E-08  3.00114313E-01  7.79556242E-01  4.46279827E-03 -8.04747970E-03
  2.21099855E-01  5.87546657E-02 -3.41891957E-15 -1.10298677E-02  2.33547170E-01
  6.58582548E-02 -4.05249962E-15  2.97011336E-01  6.99992760E-01 -1.64126722E-08
 -3.83609370E-08 -6.62813696E-09  3.32490926E-08 -1.08824402E-07 -7.50795600E-10
 -3.95511616E-16 -1.05002954E-08  6.46521414E-08  1.85394422E-10  1.61885509E-15
  1.25305374E-06 -1.04369139E-06  1.27504507E+00 -1.05266357E+00 -6.69556702E-03
  3.36398055E-02 -1.10346160E-01 -7.66107663E-04 -2.79350921E-15 -1.06754358E-02
  6.57736965E-02  1.91089808E-04  1.57844434E-15  1.26255042E+00 -1.05302554E+00
 -1.26507223E-06  1.04587676E-06  5.85248511E-16 -5.33247760E-15 -4.36786548E-13
 -5.38998707E-13  1.01395181E+00  3.64379833E-15  4.23228411E-13  5.24685576E-13
 -9.82862545E-01 -6.04367073E-14  6.40235295E-14  2.24618765E-15 -1.71861741E-15
 -1.08766406E-03  8.18416621E-03  6.15948817E-01  8.02483568E-01  6.96001686E-13
 -5.34449670E-03 -5.97467351E-01 -7.80580082E-01 -6.72397961E-13  9.04858991E-02
 -9.53369123E-02 -5.10355882E-10  5.21599233E-10 -1.24226788E-03  9.02047988E-03
  7.98200712E-01 -6.14776122E-01  1.97479997E-14 -5.59608213E-03 -7.80283269E-01
  6.02677117E-01 -1.60396893E-14  1.16620951E-01 -1.23164250E-01 -6.49470589E-10
  6.65240014E-10 -1.35184711E-01  1.47018101E+00 -6.19567150E-03 -6.69779795E-04
 -2.52573131E-16 -1.24727431E+00  7.80554099E-03  6.51915502E-04  2.05501697E-16
 -4.36357486E-02  5.27241181E-02  1.22086324E-10 -1.43549246E-10
Total SCF Density                          R   N=          91
  2.05873877E+00  5.66344981E-02  1.52705976E-01 -1.88792488E-03  3.22278983E-03
  5.08547198E-01 -4.97535650E-04  9.22425936E-04 -3.33068020E-02  6.11528700E-01
 -1.98909983E-15  3.28439359E-17  3.53792849E-15  1.45436317E-15  6.06097548E-01
 -4.68350895E-01  4.15518213E-01  4.87336490E-03  1.30602327E-03  6.54683320E-16
  1.32082849E+00 -2.13764651E-03  3.66271520E-03  5.61732440E-01 -2.78163181E-02
  2.54806563E-15  5.66443782E-03  6.20612147E-01 -6.09652243E-04  1.03418255E-03
 -2.95921019E-02  6.58227001E-01  1.70936494E-15  1.48477647E-03 -2.30218180E-02
  7.08568623E-01  1.84763032E-15  1.20712957E-17  3.43938915E-15  1.78010673E-15
  6.65286932E-01 -5.76966025E-16  2.30853705E-15  2.06857911E-15  7.30256547E-01
  3.34565692E-04 -1.31665603E-03 -1.05835129E-01 -3.48608991E-02  1.98558461E-15
 -2.70546188E-03 -1.17519451E-01 -3.88535000E-02  2.26159243E-15  2.48941171E-02
 -2.52896559E-03  2.81255423E-03 -2.98772861E-01 -8.22227846E-02  5.40612884E-15
  1.18844551E-02 -3.31515428E-01 -9.22465413E-02  6.15741624E-15  6.91412818E-02
  1.92705962E-01  1.16700047E-11 -1.92763510E-11 -2.62542268E-09 -1.21594144E-09
  7.43752482E-16 -2.91768326E-11 -2.92043588E-09 -1.34203631E-09  8.16384772E-16
  6.41573403E-10  1.77428495E-09  1.67151463E-17  2.06181740E-11 -4.67486113E-11
 -8.54048890E-09 -3.65001071E-09 -3.70988275E-16 -4.52730535E-11 -9.49565786E-09
 -4.03666617E-09 -4.07217697E-16  2.06602817E-09  5.72127329E-09  5.36785941E-17
  1.72508021E-16
Mulliken Charges                           R   N=           3
 -1.67937157E+00  6.79371566E-01  1.00000000E+00
ONIOM Charges                              I   N=          16
           0           0           0           0           0           0
           0           0           0           0           0           0
           0           0           0           0
ONIOM Multiplicities                       I   N=          16
           1           0           0           0           0           0
           0           0           0           0           0           0
           0           0           0           0
Atom Layers                                I   N=           3
           1           1           1
Atom Modifiers                             I   N=           3
           0           0           0
Force Field                                I                0
Int Atom Modified Types                    I   N=           3
           0           0           0
Link Atoms                                 I   N=           3
           0           0           0
Atom Modified MM Charges                   R   N=           3
  0.00000000E+00  0.00000000E+00  0.00000000E+00
Link Distances                             R   N=          12
  0.00000000E+00  0.00000000E+00  0.00000000E+00  0.00000000E+00  0.00000000E+00
  0.00000000E+00  0.00000000E+00  0.00000000E+00  0.00000000E+00  0.00000000E+00
  0.00000000E+00  0.00000000E+00
Cartesian Gradient                         R   N=           9
  4.23787431E-02 -1.14480666E-03 -7.88540838E-18 -4.13804131E-02  1.16641715E-03
  7.78356412E-18 -9.98329962E-04 -2.16104946E-05  1.01844253E-19
Dipole Moment                              R   N=           3
 -2.42536948E+01  4.70053890E+00  3.61865350E-16
Quadrupole Moment                          R   N=           6
  2.83514710E+02 -1.30688789E+02 -1.52825922E+02 -9.55748533E+01 -5.04067006E-15
 -3.99763238E-15
QEq coupling tensors                       R   N=          18
 -1.06521544E+00 -5.07524449E-01  5.46355389E-01  5.36793703E-14  2.45167596E-14
  5.18860050E-01  1.81877613E-02  3.11063258E-04 -9.14030741E-03 -8.15934092E-18
  1.96732644E-18 -9.04745385E-03  1.64694840E-05  4.41803521E-05 -2.09112935E-05
 -1.04571606E-20  6.28254562E-21  4.44180956E-06
