                                                                        
SP        RB3LYP                                                      3-21G               
Number of atoms                            I                3
Info1-9                                    I   N=           9
          11          11           0           0           0         110
           1          18        -502
Charge                                     I                0
Multiplicity                               I                1
Number of electrons                        I               10
Number of alpha electrons                  I                5
Number of beta electrons                   I                5
Number of basis functions                  I               13
Number of independent functions            I               13
Number of point charges in /Mol/           I                0
Number of translation vectors              I                0
Atomic numbers                             I   N=           3
           8           1           1
Nuclear charges                            R   N=           3
  8.00000000E+00  1.00000000E+00  1.00000000E+00
Current cartesian coordinates              R   N=           9
  0.00000000E+00  0.00000000E+00  0.00000000E+00  1.88334356E+00  0.00000000E+00
  0.00000000E+00 -4.53607269E-01 -1.82789410E+00  0.00000000E+00
Force Field                                I                0
Int Atom Types                             I   N=           3
           0           0           0
MM charges                                 R   N=           3
  0.00000000E+00  0.00000000E+00  0.00000000E+00
Integer atomic weights                     I   N=           3
          16           1           1
Real atomic weights                        R   N=           3
  1.59949146E+01  1.00782504E+00  1.00782504E+00
Atom fragment info                         I   N=           3
           0           0           0
Atom residue num                           I   N=           3
           0           0           0
Nuclear spins                              I   N=           3
           0           1           1
Nuclear ZEff                               R   N=           3
 -5.60000000E+00 -1.00000000E+00 -1.00000000E+00
Nuclear ZNuc                               R   N=           3
  8.00000000E+00  1.00000000E+00  1.00000000E+00
Nuclear QMom                               R   N=           3
  0.00000000E+00  0.00000000E+00  0.00000000E+00
Nuclear GFac                               R   N=           3
  0.00000000E+00  2.79284600E+00  2.79284600E+00
MicOpt                                     I   N=           3
          -1          -1          -1
Number of contracted shells                I                7
Number of primitive shells                 I               12
Pure/Cartesian d shells                    I                1
Pure/Cartesian f shells                    I                0
Highest angular momentum                   I                1
Largest degree of contraction              I                3
Shell types                                I   N=           7
           0          -1          -1           0           0           0
           0
Number of primitives per shell             I   N=           7
           3           2           1           2           1           2
           1
Shell to atom map                          I   N=           7
           1           1           1           2           2           3
           3
Primitive exponents                        R   N=          12
  3.22037000E+02  4.84308000E+01  1.04206000E+01  7.40294000E+00  1.57620000E+00
  3.73684000E-01  5.44717800E+00  8.24547240E-01  1.83191580E-01  5.44717800E+00
  8.24547240E-01  1.83191580E-01
Contraction coefficients                   R   N=          12
  5.92393934E-02  3.51499961E-01  7.07657921E-01 -4.04453583E-01  1.22156176E+00
  1.00000000E+00  1.56284979E-01  9.04690877E-01  1.00000000E+00  1.56284979E-01
  9.04690877E-01  1.00000000E+00
P(S=P) Contraction coefficients            R   N=          12
  0.00000000E+00  0.00000000E+00  0.00000000E+00  2.44586107E-01  8.53955373E-01
  1.00000000E+00  0.00000000E+00  0.00000000E+00  0.00000000E+00  0.00000000E+00
  0.00000000E+00  0.00000000E+00
Coordinates of each shell                  R   N=          21
  0.00000000E+00  0.00000000E+00  0.00000000E+00  0.00000000E+00  0.00000000E+00
  0.00000000E+00  0.00000000E+00  0.00000000E+00  0.00000000E+00  1.88334356E+00
  0.00000000E+00  0.00000000E+00  1.88334356E+00  0.00000000E+00  0.00000000E+00
 -4.53607269E-01 -1.82789410E+00  0.00000000E+00 -4.53607269E-01 -1.82789410E+00
  0.00000000E+00
Constraint Structure                       R   N=           9
  0.00000000E+00  0.00000000E+00  0.00000000E+00  1.88334356E+00  0.00000000E+00
  0.00000000E+00 -4.53607269E-01 -1.82789410E+00  0.00000000E+00
Num ILSW                                   I              100
ILSW                                       I   N=         100
           0           1           0           0           2           0
           0           0           0           0         402          -1
           0           0           0           0           0           0
           0           0           1           0           0           0
           1           1           0           0           0           0
           0           0      100000           0          -1           0
           0           0           0           0           0           0
           0           0           0           1           0           0
           0           0           1           0           0           0
           0           0           4          41           0           0
           0           0           5           0           0           0
           0           0           0           0           0           0
           0           0           0           0           0           0
           0           0           0           0           0           0
           0           0           0           0           0           0
           0           0           0           0           0           0
           0           0           0           0
Num RLSW                                   I               41
RLSW                                       R   N=          41
  8.00000000E-01  7.20000000E-01  1.00000000E+00  8.10000000E-01  2.00000000E-01
  0.00000000E+00  0.00000000E+00  1.00000000E+00  0.00000000E+00  0.00000000E+00
  0.00000000E+00  0.00000000E+00  1.00000000E+00  0.00000000E+00  0.00000000E+00
  0.00000000E+00  0.00000000E+00  1.00000000E+00  0.00000000E+00  0.00000000E+00
  0.00000000E+00  0.00000000E+00  1.00000000E+00  0.00000000E+00  0.00000000E+00
  0.00000000E+00  0.00000000E+00  1.00000000E+00  0.00000000E+00  0.00000000E+00
  0.00000000E+00  0.00000000E+00  1.00000000E+00  0.00000000E+00  0.00000000E+00
  0.00000000E+00  0.00000000E+00  0.00000000E+00  1.00000000E+00  1.00000000E+00
  0.00000000E+00
MxBond                                     I                2
NBond                                      I   N=           3
           2           1           1
IBond                                      I   N=           6
           2           3           1           0           1           0
RBond                                      R   N=           6
  1.00000000E+00  1.00000000E+00  1.00000000E+00  0.00000000E+00  1.00000000E+00
  0.00000000E+00
Virial Ratio                               R      2.007090235058421E+00
SCF Energy                                 R     -7.597396481838462E+01
Total Energy                               R     -7.597396481838462E+01
RMS Density                                R      9.641387685586498E-09
External E-field                           R   N=          35
  0.00000000E+00  0.00000000E+00  0.00000000E+00  0.00000000E+00  0.00000000E+00
  0.00000000E+00  0.00000000E+00  0.00000000E+00  0.00000000E+00  0.00000000E+00
  0.00000000E+00  0.00000000E+00  0.00000000E+00  0.00000000E+00  0.00000000E+00
  0.00000000E+00  0.00000000E+00  0.00000000E+00  0.00000000E+00  0.00000000E+00
  0.00000000E+00  0.00000000E+00  0.00000000E+00  0.00000000E+00  0.00000000E+00
  0.00000000E+00  0.00000000E+00  0.00000000E+00  0.00000000E+00  0.00000000E+00
  0.00000000E+00  0.00000000E+00  0.00000000E+00  0.00000000E+00  0.00000000E+00
IOpCl                                      I                0
IROHF                                      I                0
Alpha Orbital Energies                     R   N=          13
 -1.90032288E+01 -9.75833349E-01 -4.92477772E-01 -3.26931666E-01 -2.56857452E-01
  8.72592609E-02  1.76682584E-01  9.13112543E-01  9.75035046E-01  1.43855017E+00
  1.52772611E+00  1.64438754E+00  2.73035162E+00
Alpha MO coefficients                      R   N=         169
  9.82189863E-01  1.02311747E-01  2.17305799E-03 -2.77826196E-03 -3.59639235E-17
 -4.12146616E-02 -4.32437462E-03  5.52873073E-03  1.08304871E-16  2.70380166E-03
  7.08269174E-03  2.70379972E-03  7.08277915E-03 -2.26348875E-01  2.16757333E-01
  7.02208885E-02 -8.97779301E-02 -1.64844168E-16  6.85405672E-01  6.93007918E-02
 -8.86010129E-02 -8.96992308E-18  1.19341608E-01  3.02888609E-02  1.19343069E-01
  3.02886777E-02 -4.24800817E-07  2.80053319E-07  3.20727311E-01  2.50864708E-01
  7.09378297E-16  2.04459898E-06  2.72636444E-01  2.13248889E-01  6.80893681E-16
  2.31164401E-01  2.11472635E-01 -2.31164877E-01 -2.11471411E-01 -1.05016627E-01
  8.98088410E-02 -2.68983726E-01  3.43892824E-01  9.31825508E-17  4.76458446E-01
 -2.90958035E-01  3.71986650E-01 -2.21421484E-16 -1.33636502E-01 -1.36904909E-01
 -1.33636487E-01 -1.36903307E-01  2.18495379E-16  2.52865784E-17  4.84253745E-16
  1.04553593E-15  5.30535127E-01 -2.12132680E-15  8.51335900E-16  1.87596136E-15
  6.23391626E-01  3.28994832E-16 -6.91272914E-16  2.72427601E-16  3.91211681E-15
 -1.08437095E-01  5.78218819E-02  1.65810814E-01 -2.11980183E-01  8.92218499E-16
  9.47051358E-01  2.91961180E-01 -3.73256585E-01  1.09243190E-15 -9.47216468E-02
 -7.99659412E-01 -9.47189683E-02 -7.99641330E-01  1.34294597E-06 -6.64049185E-07
  2.93635326E-01  2.29676599E-01 -1.14856946E-15 -1.37172865E-05  5.74832095E-01
  4.49624298E-01 -9.14518384E-16 -9.96716852E-02 -1.04041085E+00  9.96725990E-02
  1.04043153E+00  1.02224036E-06 -2.69951878E-06 -1.66242030E-01 -1.30020562E-01
 -2.24162718E-16  4.98156947E-06 -1.89273115E-01 -1.48043368E-01 -3.25151626E-17
  9.37942250E-01 -8.31099478E-01 -9.37897742E-01  8.31067816E-01  5.30569047E-02
 -9.89670826E-02 -1.96553999E-01  2.51300597E-01  5.35697114E-16  5.78853637E-02
 -8.91485959E-02  1.13992917E-01 -7.78667466E-16  9.36765580E-01 -5.76624418E-01
  9.36813695E-01 -5.76660490E-01 -2.08290802E-16  5.81596472E-16 -6.85171706E-15
 -1.18802095E-15  1.02453869E+00  9.92954729E-17  9.89932996E-15  1.84472791E-15
 -9.70839809E-01 -3.11950253E-15 -3.30538428E-15 -1.25649804E-15  4.52507255E-15
  5.08238257E-02 -1.46192303E-01  6.06531280E-01 -7.75448864E-01  3.99052372E-15
 -1.56053347E-01 -7.20331948E-01  9.20945942E-01 -3.73748003E-15  3.19619133E-01
  5.84633613E-02  3.19620162E-01  5.84685186E-02 -4.27453551E-08  7.77498102E-07
 -8.14951341E-01 -6.37429207E-01 -6.88331126E-15 -2.57938403E-06  1.12111311E+00
  8.76900576E-01  6.75168084E-15 -2.02135885E-01 -4.54985412E-01  2.02132238E-01
  4.54988612E-01  9.00938232E-02 -1.62671655E+00 -9.58953324E-02  1.22601243E-01
 -6.26895172E-16  1.92745696E+00  2.97152560E-01 -3.79910311E-01 -5.75942443E-16
 -2.78828436E-01 -3.39599998E-01 -2.78829099E-01 -3.39604962E-01
Total SCF Density                          R   N=          91
  2.05391847E+00  8.39907215E-02  1.31034126E-01  2.89751276E-02 -1.74276100E-02
  3.60307897E-01 -3.70444364E-02  2.22808253E-02 -3.67054666E-02  3.78526343E-01
  2.16244692E-16 -3.52529608E-17  8.95424741E-16  1.55919122E-15  5.62935042E-01
 -4.91314970E-01  3.74280285E-01 -1.60237358E-01  2.04862712E-01 -2.38508441E-15
  1.39698447E+00  2.12436048E-02 -2.31030141E-02  3.41123792E-01 -7.57463715E-02
  1.21337091E-15 -1.81902945E-01  3.27617017E-01 -2.71597420E-02  2.95369689E-02
 -7.57464805E-02  3.78718430E-01  2.39121344E-15  2.32562232E-01 -1.12514230E-01
  3.83459726E-01  5.35734232E-16  1.00291781E-17  1.15885036E-15  1.49389936E-15
  6.61462311E-01 -2.87705178E-15  1.55937298E-15  2.46737224E-15  7.77234239E-01
 -2.06464715E-02  2.82862497E-02  2.36945861E-01  2.62520303E-03  6.12607453E-16
  3.60284229E-02  2.20330460E-01 -2.19485637E-02  7.82606691E-16  1.71090850E-01
  2.89558007E-02 -1.00104733E-02  2.13585088E-01  6.46291256E-03 -4.69470556E-16
 -8.95216429E-02  1.99114288E-01 -1.69499191E-02 -5.12268552E-16  1.41628619E-01
  1.28862418E-01 -2.06467470E-02  2.82866263E-02 -5.96171944E-02 -2.29339248E-01
 -1.03347543E-16  3.60285493E-02 -3.17649666E-02 -2.19131221E-01  8.24854143E-17
 -4.26569465E-02 -5.39112773E-02  1.71091979E-01  2.89560783E-02 -1.00104842E-02
 -5.77152124E-02 -2.05739423E-01  3.81499505E-15 -8.95221048E-02 -3.15065910E-02
 -1.97333390E-01  4.65120012E-15 -5.39110662E-02 -5.00202140E-02  1.41627868E-01
  1.28860486E-01
Mulliken Charges                           R   N=           3
 -6.38326565E-01  3.19162521E-01  3.19164044E-01
ONIOM Charges                              I   N=          16
           0           0           0           0           0           0
           0           0           0           0           0           0
           0           0           0           0
ONIOM Multiplicities                       I   N=          16
           1           0           0           0           0           0
           0           0           0           0           0           0
           0           0           0           0
Atom Layers                                I   N=           3
           1           1           1
Atom Modifiers                             I   N=           3
           0           0           0
Force Field                                I                0
Int Atom Modified Types                    I   N=           3
           0           0           0
Link Atoms                                 I   N=           3
           0           0           0
Atom Modified MM Charges                   R   N=           3
  0.00000000E+00  0.00000000E+00  0.00000000E+00
Link Distances                             R   N=          12
  0.00000000E+00  0.00000000E+00  0.00000000E+00  0.00000000E+00  0.00000000E+00
  0.00000000E+00  0.00000000E+00  0.00000000E+00  0.00000000E+00  0.00000000E+00
  0.00000000E+00  0.00000000E+00
Cartesian Gradient                         R   N=           9
  0.00000000E+00  0.00000000E+00  0.00000000E+00  0.00000000E+00  0.00000000E+00
  0.00000000E+00  0.00000000E+00  0.00000000E+00  0.00000000E+00
Dipole Moment                              R   N=           3
  5.42678141E-01 -6.93809726E-01 -2.00575911E-16
Quadrupole Moment                          R   N=           6
  6.10748854E-01  4.26933581E-01 -1.03768244E+00  3.70347441E-01 -1.87852145E-15
 -7.72402111E-16
QEq coupling tensors                       R   N=          18
 -1.26977589E+00 -6.93334500E-01 -9.25648959E-01  4.54460925E-15  2.48183637E-14
  2.19542485E+00 -4.71385849E-01 -2.56596229E-02  2.04387986E-01 -2.28028804E-16
  2.54691406E-16  2.66997863E-01  1.53193427E-01 -1.80656630E-01 -4.20196616E-01
 -1.54834502E-16 -1.14639940E-15  2.67003189E-01
