hessian                                                                 
Freq      RB3LYP                                                      3-21G               
Number of atoms                            I                3
Info1-9                                    I   N=           9
          12          12           0           0           0         100
           6          18        -502
Charge                                     I                0
Multiplicity                               I                1
Number of electrons                        I               10
Number of alpha electrons                  I                5
Number of beta electrons                   I                5
Number of basis functions                  I               13
Number of independent functions            I               13
Number of point charges in /Mol/           I                0
Number of translation vectors              I                0
Atomic numbers                             I   N=           3
           8           1           1
Nuclear charges                            R   N=           3
  8.00000000E+00  1.00000000E+00  1.00000000E+00
Current cartesian coordinates              R   N=           9
  0.00000000E+00  0.00000000E+00  0.00000000E+00  1.96943478E+00  0.00000000E+00
  0.00000000E+00  5.86570992E-01  1.89834328E+00  0.00000000E+00
Force Field                                I                0
Int Atom Types                             I   N=           3
           0           0           0
MM charges                                 R   N=           3
  0.00000000E+00  0.00000000E+00  0.00000000E+00
Integer atomic weights                     I   N=           3
          16           1           1
Real atomic weights                        R   N=           3
  1.59949146E+01  1.00782504E+00  1.00782504E+00
Atom fragment info                         I   N=           3
           0           0           0
Atom residue num                           I   N=           3
           0           0           0
Nuclear spins                              I   N=           3
           0           1           1
Nuclear ZEff                               R   N=           3
 -5.60000000E+00 -1.00000000E+00 -1.00000000E+00
Nuclear ZNuc                               R   N=           3
  8.00000000E+00  1.00000000E+00  1.00000000E+00
Nuclear QMom                               R   N=           3
  0.00000000E+00  0.00000000E+00  0.00000000E+00
Nuclear GFac                               R   N=           3
  0.00000000E+00  2.79284600E+00  2.79284600E+00
MicOpt                                     I   N=           3
          -1          -1          -1
Number of contracted shells                I                7
Number of primitive shells                 I               12
Pure/Cartesian d shells                    I                1
Pure/Cartesian f shells                    I                0
Highest angular momentum                   I                1
Largest degree of contraction              I                3
Shell types                                I   N=           7
           0          -1          -1           0           0           0
           0
Number of primitives per shell             I   N=           7
           3           2           1           2           1           2
           1
Shell to atom map                          I   N=           7
           1           1           1           2           2           3
           3
Primitive exponents                        R   N=          12
  3.22037000E+02  4.84308000E+01  1.04206000E+01  7.40294000E+00  1.57620000E+00
  3.73684000E-01  5.44717800E+00  8.24547240E-01  1.83191580E-01  5.44717800E+00
  8.24547240E-01  1.83191580E-01
Contraction coefficients                   R   N=          12
  5.92393934E-02  3.51499961E-01  7.07657921E-01 -4.04453583E-01  1.22156176E+00
  1.00000000E+00  1.56284979E-01  9.04690877E-01  1.00000000E+00  1.56284979E-01
  9.04690877E-01  1.00000000E+00
P(S=P) Contraction coefficients            R   N=          12
  0.00000000E+00  0.00000000E+00  0.00000000E+00  2.44586107E-01  8.53955373E-01
  1.00000000E+00  0.00000000E+00  0.00000000E+00  0.00000000E+00  0.00000000E+00
  0.00000000E+00  0.00000000E+00
Coordinates of each shell                  R   N=          21
  0.00000000E+00  0.00000000E+00  0.00000000E+00  0.00000000E+00  0.00000000E+00
  0.00000000E+00  0.00000000E+00  0.00000000E+00  0.00000000E+00  1.96943478E+00
  0.00000000E+00  0.00000000E+00  1.96943478E+00  0.00000000E+00  0.00000000E+00
  5.86570992E-01  1.89834328E+00  0.00000000E+00  5.86570992E-01  1.89834328E+00
  0.00000000E+00
Constraint Structure                       R   N=           9
  0.00000000E+00  0.00000000E+00  0.00000000E+00  1.96943478E+00  0.00000000E+00
  0.00000000E+00  5.86570992E-01  1.89834328E+00  0.00000000E+00
Num ILSW                                   I              100
ILSW                                       I   N=         100
           0           1           0           0           2           0
           0           0           0           0         402          -1
           0           0           0           0           2           0
           0           0           1           0           1           0
           1           1           0           0           0           0
           0           0      100000           0          -1           0
           0           0           0           0           0           0
           0           0           0           1           0           0
           0           0           1           0           0           0
           0           0           4          41           0           0
           0           0           5           0           0           0
           0           0           0           0           0           0
           0           0           0           0           0           0
           0           0           0           0           0           0
           0           0           0           0           0           0
           0           0           0           0           0           0
           0           0           0           0
Num RLSW                                   I               41
RLSW                                       R   N=          41
  8.00000000E-01  7.20000000E-01  1.00000000E+00  8.10000000E-01  2.00000000E-01
  0.00000000E+00  0.00000000E+00  1.00000000E+00  0.00000000E+00  0.00000000E+00
  0.00000000E+00  0.00000000E+00  1.00000000E+00  0.00000000E+00  0.00000000E+00
  0.00000000E+00  0.00000000E+00  1.00000000E+00  0.00000000E+00  0.00000000E+00
  0.00000000E+00  0.00000000E+00  1.00000000E+00  0.00000000E+00  0.00000000E+00
  0.00000000E+00  0.00000000E+00  1.00000000E+00  0.00000000E+00  0.00000000E+00
  0.00000000E+00  0.00000000E+00  1.00000000E+00  0.00000000E+00  0.00000000E+00
  0.00000000E+00  0.00000000E+00  0.00000000E+00  1.00000000E+00  1.00000000E+00
  0.00000000E+00
MxBond                                     I                2
NBond                                      I   N=           3
           2           1           1
IBond                                      I   N=           6
           2           3           1           0           1           0
RBond                                      R   N=           6
  1.00000000E+00  1.00000000E+00  1.00000000E+00  0.00000000E+00  1.00000000E+00
  0.00000000E+00
Virial Ratio                               R      2.007619931006810E+00
SCF Energy                                 R     -7.594421881182190E+01
Total Energy                               R     -7.594421881182190E+01
RMS Force                                  R      3.677785846460842E-02
RMS Density                                R      5.775401650227831E-09
External E-field                           R   N=          35
  0.00000000E+00  0.00000000E+00  0.00000000E+00  0.00000000E+00  0.00000000E+00
  0.00000000E+00  0.00000000E+00  0.00000000E+00  0.00000000E+00  0.00000000E+00
  0.00000000E+00  0.00000000E+00  0.00000000E+00  0.00000000E+00  0.00000000E+00
  0.00000000E+00  0.00000000E+00  0.00000000E+00  0.00000000E+00  0.00000000E+00
  0.00000000E+00  0.00000000E+00  0.00000000E+00  0.00000000E+00  0.00000000E+00
  0.00000000E+00  0.00000000E+00  0.00000000E+00  0.00000000E+00  0.00000000E+00
  0.00000000E+00  0.00000000E+00  0.00000000E+00  0.00000000E+00  0.00000000E+00
IOpCl                                      I                0
IROHF                                      I                0
Alpha Orbital Energies                     R   N=          13
 -1.90331724E+01 -9.91713467E-01 -4.20921906E-01 -3.99387881E-01 -2.69693667E-01
  5.36849836E-02  1.40546785E-01  8.41353671E-01  9.65344969E-01  1.42505549E+00
  1.58250032E+00  1.61256915E+00  2.69303243E+00
Alpha MO coefficients                      R   N=         169
  9.82147952E-01  1.01551042E-01  3.11896618E-03  2.27455712E-03  1.53177457E-16
 -3.87875210E-02 -6.69359655E-03 -4.84327222E-03 -1.49683728E-16  3.43827442E-03
  5.55262418E-03  3.43560865E-03  5.33344712E-03 -2.22076909E-01  2.13974490E-01
  1.01739808E-01  7.34195087E-02 -1.90706199E-16  6.75453647E-01  1.03811208E-01
  7.55302444E-02  1.81022886E-16  1.23760443E-01  3.27256824E-02  1.20851442E-01
  3.30647539E-02 -2.45831167E-03  1.86962559E-03 -2.58270985E-01  3.39340376E-01
  1.93918733E-15  1.14698582E-02 -2.36572946E-01  3.11888271E-01  1.76535310E-15
 -2.05360351E-01 -2.79362548E-01  2.00007762E-01  2.77889083E-01 -1.24057584E-01
  1.07995378E-01 -3.09180985E-01 -2.35306175E-01  5.78013338E-16  5.45335776E-01
 -3.05876951E-01 -2.32974130E-01 -6.31213399E-16 -1.70157021E-01 -1.53848883E-01
 -1.75319807E-01 -1.64084926E-01  3.36212327E-17  5.28797384E-18  6.20624000E-16
 -1.14716195E-15  5.36092691E-01 -3.33247364E-16  5.40565979E-16 -1.20332078E-15
  6.18108735E-01  2.34736122E-16  5.18847623E-17 -5.32596893E-17  4.74364204E-16
 -8.87364145E-02  4.68855884E-02  2.63869843E-01  2.06462776E-01  2.41207548E-16
  7.77059284E-01  4.47031726E-01  3.47876736E-01  1.94770595E-16 -7.66225676E-02
 -6.91428192E-01 -8.64404471E-02 -7.24695168E-01  2.53701389E-03 -1.00520725E-03
 -2.24059426E-01  2.92766456E-01 -1.79473756E-17 -2.68484944E-02 -3.93707240E-01
  5.11105104E-01  1.41109275E-16  1.63099121E-01  1.08550021E+00 -1.62309959E-01
 -1.04552358E+00 -1.44713655E-04  2.70728407E-03 -5.21730142E-02  8.29397390E-02
 -5.58552161E-16 -9.29717467E-03 -4.59712538E-02  4.98264831E-02 -3.87877480E-16
  8.85818411E-01 -1.05285461E+00 -9.17256581E-01  1.08346289E+00  4.22967667E-02
 -1.10969483E-01 -3.62949366E-01 -2.65352877E-01  1.38686473E-16  1.70991994E-01
 -3.70342092E-02 -1.65253751E-02 -7.72023088E-17  9.13315611E-01 -6.21750139E-01
  8.74603351E-01 -5.88259294E-01  3.22314375E-16 -1.65600841E-15  1.34253785E-15
  4.12317396E-15  1.02164166E+00 -7.86052957E-16 -2.00113221E-15 -4.62623817E-15
 -9.74211808E-01  1.40730928E-15 -1.04223996E-15  1.68700516E-15  1.86900174E-15
  2.17582578E-03 -7.82511053E-03  6.33226617E-01 -8.13777967E-01  1.75398133E-15
 -5.56093022E-03 -7.74918880E-01  9.88755846E-01 -2.04126076E-15  1.00138578E-01
  4.80436514E-01 -7.63494963E-02 -4.75873203E-01 -6.75349264E-02  2.78814650E-01
 -7.30052175E-01 -5.75242288E-01  3.94594762E-15  1.90049496E-02  9.88968366E-01
  7.69586093E-01 -3.81561059E-15 -4.73163700E-01  3.62481946E-02 -4.77693097E-01
  1.54968130E-02  8.90732012E-02 -1.58713610E+00 -1.95543127E-01 -1.43598243E-01
 -5.46438793E-16  1.81030585E+00  5.40577460E-01  3.91779023E-01  4.32548894E-16
 -3.75095204E-01 -2.47639309E-01 -3.73137994E-01 -2.34321734E-01
Total SCF Density                          R   N=          91
  2.05865816E+00  7.76342254E-02  1.35528387E-01  3.89207614E-02 -2.35730591E-02
  3.45314999E-01  2.85729704E-02 -1.76733085E-02 -1.48255941E-02  3.51832969E-01
  2.68688802E-16  8.72644714E-17 -7.31518442E-16 -2.13207662E-16  5.74790746E-01
 -5.11557956E-01  3.99012247E-01 -2.05940474E-01 -1.49850879E-01  4.80950164E-17
  1.51052953E+00  1.77995023E-02 -2.38847822E-02  3.32424240E-01 -1.39494810E-03
 -7.33178992E-16 -1.98279631E-01  3.20698079E-01  1.32103118E-02 -1.78146173E-02
 -1.70238679E-03  3.32381823E-01 -3.80179623E-16 -1.44533552E-01  1.07007885E-02
  3.14559027E-01 -1.84927942E-16 -7.61305918E-17  2.81566374E-16  1.02926644E-16
  6.62727150E-01 -8.03759153E-16  2.58723053E-16 -6.34722077E-17  7.64116817E-01
 -4.98666772E-03  1.61412386E-02  2.36500046E-01 -4.11076187E-02 -7.87640230E-16
 -2.33741695E-02  2.26909041E-01 -3.01525936E-02 -1.76293748E-16  1.72909508E-01
  3.59175219E-02 -1.91418712E-02  2.46130426E-01 -1.12364133E-01 -1.21647686E-15
 -1.30428479E-01  2.33017148E-01 -9.76844132E-02 -7.17797360E-16  1.75235390E-01
  2.05629428E-01 -4.41193692E-03  1.52964522E-02  2.97109339E-02  2.36010421E-01
  4.70884679E-16 -2.36356281E-02  3.76652002E-02  2.24672708E-01  9.04381755E-16
  7.45334478E-03 -4.98557983E-02  1.70714028E-01  3.51363146E-02 -1.91684681E-02
 -3.53162229E-02  2.70697823E-01  1.38570041E-15 -1.28334389E-01 -2.43089000E-02
  2.54738892E-01  1.78508153E-15 -5.00735017E-02 -1.02551677E-01  1.76723116E-01
  2.10535858E-01
Mulliken Charges                           R   N=           3
 -5.50035573E-01  2.77418499E-01  2.72617075E-01
ONIOM Charges                              I   N=          16
           0           0           0           0           0           0
           0           0           0           0           0           0
           0           0           0           0
ONIOM Multiplicities                       I   N=          16
           1           0           0           0           0           0
           0           0           0           0           0           0
           0           0           0           0
Atom Layers                                I   N=           3
           1           1           1
Atom Modifiers                             I   N=           3
           0           0           0
Force Field                                I                0
Int Atom Modified Types                    I   N=           3
           0           0           0
Link Atoms                                 I   N=           3
           0           0           0
Atom Modified MM Charges                   R   N=           3
  0.00000000E+00  0.00000000E+00  0.00000000E+00
Link Distances                             R   N=          12
  0.00000000E+00  0.00000000E+00  0.00000000E+00  0.00000000E+00  0.00000000E+00
  0.00000000E+00  0.00000000E+00  0.00000000E+00  0.00000000E+00  0.00000000E+00
  0.00000000E+00  0.00000000E+00
Cartesian Gradient                         R   N=           9
 -6.05097802E-02 -4.90114882E-02  3.85612058E-15  5.40483887E-03  5.48628565E-02
  4.11980885E-15  5.51049414E-02 -5.85136828E-03 -7.97592942E-15
Cartesian Force Constants                  R   N=          45
  3.26473527E-01  3.08365406E-02  2.85584050E-01 -1.30841420E-12 -1.89201569E-12
  4.88707677E-02 -3.01321953E-01  3.49955575E-02  3.60749932E-13  3.26073017E-01
  1.39056628E-02 -1.30173924E-02 -8.42490506E-15 -5.87533290E-02  5.99002309E-02
  3.62356643E-12 -2.07435517E-13 -2.29608888E-02 -2.32285851E-12 -3.53413000E-13
 -5.95452334E-03 -2.51515744E-02 -6.58320981E-02  8.55241242E-13 -2.47510649E-02
  4.48476662E-02 -1.40814557E-12  4.99026393E-02 -4.47422034E-02 -2.72566657E-01
  2.98463628E-12  2.37577715E-02 -4.68828385E-02 -6.34717089E-14  2.09844319E-02
  3.19449496E-01 -2.42749715E-12  2.57826373E-12 -2.59098789E-02  2.18526693E-12
  3.09973582E-13  2.89154121E-02  4.42090894E-13 -3.34811277E-12 -3.00553318E-03
Dipole Moment                              R   N=           3
  7.87801169E-01  5.76849475E-01 -3.32767072E-16
Dipole Derivatives                         R   N=          27
 -1.09489747E-02  1.14480068E-01  3.51812796E-12  1.12538193E-01 -7.85340835E-02
  5.47756830E-12  1.46158212E-12  5.57734604E-12 -6.13376388E-01 -1.93746194E-01
  1.00827518E-01 -3.01159405E-13 -8.84122345E-02  2.40819613E-01 -2.49236449E-12
 -1.11704005E-11  4.35388175E-12  3.09510351E-01  2.04695169E-01 -2.15307587E-01
 -2.72151781E-12 -2.41259588E-02 -1.62285530E-01 -6.81329749E-12  1.01928023E-11
 -1.17540154E-11  3.03866036E-01
Polarizability                             R   N=           6
  7.09208815E+00  3.02320238E-01  7.05913633E+00 -3.62219784E-12  8.08044691E-12
  7.45894573E-01
QEq coupling tensors                       R   N=          18
 -1.31251738E+00 -2.22674441E-01 -1.21343668E+00 -1.85824918E-16  6.67305114E-16
  2.52595406E+00 -3.77778347E-01  7.63527099E-02  1.43333210E-01 -2.00240580E-16
  8.65586165E-17  2.34445137E-01  1.35157439E-01 -7.66240717E-02 -3.59385742E-01
 -1.11486217E-16 -3.33726683E-16  2.24228303E-01
