                                                                        
Force     RB3LYP                                                      3-21G               
Number of atoms                            I                3
Info1-9                                    I   N=           9
          11          11           0           0           0         100
           5          18        -502
Charge                                     I                0
Multiplicity                               I                1
Number of electrons                        I               10
Number of alpha electrons                  I                5
Number of beta electrons                   I                5
Number of basis functions                  I               13
Number of independent functions            I               13
Number of point charges in /Mol/           I                0
Number of translation vectors              I                0
Atomic numbers                             I   N=           3
           8           1           1
Nuclear charges                            R   N=           3
  8.00000000E+00  1.00000000E+00  1.00000000E+00
Current cartesian coordinates              R   N=           9
  0.00000000E+00  0.00000000E+00  0.00000000E+00  1.77859096E+00  0.00000000E+00
  0.00000000E+00 -1.41766442E+00  1.25422390E+00  0.00000000E+00
Force Field                                I                0
Int Atom Types                             I   N=           3
           0           0           0
MM charges                                 R   N=           3
  0.00000000E+00  0.00000000E+00  0.00000000E+00
Integer atomic weights                     I   N=           3
          16           1           1
Real atomic weights                        R   N=           3
  1.59949146E+01  1.00782504E+00  1.00782504E+00
Atom fragment info                         I   N=           3
           0           0           0
Atom residue num                           I   N=           3
           0           0           0
Nuclear spins                              I   N=           3
           0           1           1
Nuclear ZEff                               R   N=           3
 -5.60000000E+00 -1.00000000E+00 -1.00000000E+00
Nuclear ZNuc                               R   N=           3
  8.00000000E+00  1.00000000E+00  1.00000000E+00
Nuclear QMom                               R   N=           3
  0.00000000E+00  0.00000000E+00  0.00000000E+00
Nuclear GFac                               R   N=           3
  0.00000000E+00  2.79284600E+00  2.79284600E+00
MicOpt                                     I   N=           3
          -1          -1          -1
Number of contracted shells                I                7
Number of primitive shells                 I               12
Pure/Cartesian d shells                    I                1
Pure/Cartesian f shells                    I                0
Highest angular momentum                   I                1
Largest degree of contraction              I                3
Shell types                                I   N=           7
           0          -1          -1           0           0           0
           0
Number of primitives per shell             I   N=           7
           3           2           1           2           1           2
           1
Shell to atom map                          I   N=           7
           1           1           1           2           2           3
           3
Primitive exponents                        R   N=          12
  3.22037000E+02  4.84308000E+01  1.04206000E+01  7.40294000E+00  1.57620000E+00
  3.73684000E-01  5.44717800E+00  8.24547240E-01  1.83191580E-01  5.44717800E+00
  8.24547240E-01  1.83191580E-01
Contraction coefficients                   R   N=          12
  5.92393934E-02  3.51499961E-01  7.07657921E-01 -4.04453583E-01  1.22156176E+00
  1.00000000E+00  1.56284979E-01  9.04690877E-01  1.00000000E+00  1.56284979E-01
  9.04690877E-01  1.00000000E+00
P(S=P) Contraction coefficients            R   N=          12
  0.00000000E+00  0.00000000E+00  0.00000000E+00  2.44586107E-01  8.53955373E-01
  1.00000000E+00  0.00000000E+00  0.00000000E+00  0.00000000E+00  0.00000000E+00
  0.00000000E+00  0.00000000E+00
Coordinates of each shell                  R   N=          21
  0.00000000E+00  0.00000000E+00  0.00000000E+00  0.00000000E+00  0.00000000E+00
  0.00000000E+00  0.00000000E+00  0.00000000E+00  0.00000000E+00  1.77859096E+00
  0.00000000E+00  0.00000000E+00  1.77859096E+00  0.00000000E+00  0.00000000E+00
 -1.41766442E+00  1.25422390E+00  0.00000000E+00 -1.41766442E+00  1.25422390E+00
  0.00000000E+00
Constraint Structure                       R   N=           9
  0.00000000E+00  0.00000000E+00  0.00000000E+00  1.77859096E+00  0.00000000E+00
  0.00000000E+00 -1.41766442E+00  1.25422390E+00  0.00000000E+00
Num ILSW                                   I              100
ILSW                                       I   N=         100
           0           1           0           0           2           0
           0           0           0           0         402          -1
           0           0           0           0           2           0
           0           0           1           0           1           0
           1           1           0           0           0           0
           0           0      100000           0          -1           0
           0           0           0           0           0           0
           0           0           0           1           0           0
           0           0           1           0           0           0
           0           0           4          41           0           0
           0           0           5           0           0           0
           0           0           0           0           0           0
           0           0           0           0           0           0
           0           0           0           0           0           0
           0           0           0           0           0           0
           0           0           0           0           0           0
           0           0           0           0
Num RLSW                                   I               41
RLSW                                       R   N=          41
  8.00000000E-01  7.20000000E-01  1.00000000E+00  8.10000000E-01  2.00000000E-01
  0.00000000E+00  0.00000000E+00  1.00000000E+00  0.00000000E+00  0.00000000E+00
  0.00000000E+00  0.00000000E+00  1.00000000E+00  0.00000000E+00  0.00000000E+00
  0.00000000E+00  0.00000000E+00  1.00000000E+00  0.00000000E+00  0.00000000E+00
  0.00000000E+00  0.00000000E+00  1.00000000E+00  0.00000000E+00  0.00000000E+00
  0.00000000E+00  0.00000000E+00  1.00000000E+00  0.00000000E+00  0.00000000E+00
  0.00000000E+00  0.00000000E+00  1.00000000E+00  0.00000000E+00  0.00000000E+00
  0.00000000E+00  0.00000000E+00  0.00000000E+00  1.00000000E+00  1.00000000E+00
  0.00000000E+00
MxBond                                     I                2
NBond                                      I   N=           3
           2           1           1
IBond                                      I   N=           6
           2           3           1           0           1           0
RBond                                      R   N=           6
  1.00000000E+00  1.00000000E+00  1.00000000E+00  0.00000000E+00  1.00000000E+00
  0.00000000E+00
Virial Ratio                               R      2.006939671553587E+00
SCF Energy                                 R     -7.594772217077792E+01
Total Energy                               R     -7.594772217077792E+01
RMS Force                                  R      3.608023116963130E-02
RMS Density                                R      1.007611353924460E-09
External E-field                           R   N=          35
  0.00000000E+00  0.00000000E+00  0.00000000E+00  0.00000000E+00  0.00000000E+00
  0.00000000E+00  0.00000000E+00  0.00000000E+00  0.00000000E+00  0.00000000E+00
  0.00000000E+00  0.00000000E+00  0.00000000E+00  0.00000000E+00  0.00000000E+00
  0.00000000E+00  0.00000000E+00  0.00000000E+00  0.00000000E+00  0.00000000E+00
  0.00000000E+00  0.00000000E+00  0.00000000E+00  0.00000000E+00  0.00000000E+00
  0.00000000E+00  0.00000000E+00  0.00000000E+00  0.00000000E+00  0.00000000E+00
  0.00000000E+00  0.00000000E+00  0.00000000E+00  0.00000000E+00  0.00000000E+00
IOpCl                                      I                0
IROHF                                      I                0
Alpha Orbital Energies                     R   N=          13
 -1.89640230E+01 -9.45009220E-01 -5.36886157E-01 -2.56179130E-01 -2.37141254E-01
  8.47396675E-02  2.06566082E-01  8.38007193E-01  1.09907899E+00  1.45818563E+00
  1.47813931E+00  1.80370976E+00  2.71156704E+00
Alpha MO coefficients                      R   N=         169
  9.82138775E-01  1.02275451E-01  1.04153862E-03  2.26176574E-03 -5.02561986E-16
 -4.13723780E-02 -1.88011866E-03 -3.44072234E-03  3.04154534E-16  1.23771840E-03
  8.54025034E-03  1.34532760E-03  7.23705257E-03 -2.29415312E-01  2.19764620E-01
  4.39571199E-02  7.13922676E-02 -2.10649975E-17  6.85711968E-01  3.35037262E-02
  6.97330367E-02 -1.51087212E-16  1.39517255E-01  3.46425365E-02  1.13174152E-01
  3.43579385E-02  7.56562359E-03 -5.20436739E-03  3.73394640E-01 -1.39703031E-01
  6.75132364E-16 -3.48938645E-02  3.05062529E-01 -1.18158801E-01  7.39002503E-16
  2.39270517E-01  1.67212766E-01 -2.35406257E-01 -1.86512513E-01  7.31508031E-02
 -6.13668242E-02  1.73071841E-01  4.50491749E-01  1.03619022E-14 -3.37613119E-01
  2.01374742E-01  5.30340509E-01  1.25209637E-14  8.50387550E-02  8.89265336E-02
  8.64470805E-02  1.03130528E-01 -1.59556642E-15  1.52930787E-15 -3.57554004E-15
 -9.68166168E-15  5.23483710E-01  7.44675557E-15 -3.17697837E-15 -1.02625377E-14
  6.30046882E-01 -1.73844788E-15 -4.05569401E-15 -1.18471466E-15 -1.18843199E-15
 -1.29505951E-01  6.99475555E-02  2.17969143E-02  1.85531494E-01  5.32190568E-18
  1.06356444E+00  3.78813981E-02  3.20036289E-01  2.26885119E-16 -1.37706516E-01
 -7.27508569E-01 -1.60352957E-01 -8.89592459E-01  1.50500407E-02 -6.47439811E-03
 -3.32309590E-01  1.12768960E-01  4.97826282E-16 -1.67863813E-01 -7.36107809E-01
  2.51685320E-01  8.95242878E-16  4.07806032E-02  1.19635771E+00 -4.53150563E-02
 -9.53503700E-01  4.64104948E-02 -4.21635677E-02 -1.28509354E-02 -1.11970560E-01
 -1.03144137E-15  2.94110207E-02 -1.15871597E-01 -1.20718964E-01  1.38680197E-15
  8.40921475E-01 -5.01296524E-01  9.91655803E-01 -7.37769028E-01  9.23508891E-03
  1.89075461E-03 -4.08079518E-01  1.52019649E-01  6.73109148E-16 -7.01336084E-02
 -2.58331773E-01  4.10585218E-02 -8.83791617E-16  1.06104385E+00 -6.97393079E-01
 -8.50902857E-01  6.37275163E-01  2.28824930E-17  1.20925273E-16  2.13721445E-15
 -1.46640359E-15  1.02815945E+00 -1.51759511E-16 -3.46973401E-15  1.52523458E-15
 -9.66534004E-01  1.39632132E-15  1.60236411E-15  1.45923003E-15 -3.35958883E-15
  2.20601008E-02 -2.69399605E-02  3.84860341E-01  9.52109858E-01 -2.01675554E-15
 -1.59564305E-01 -3.98509292E-01 -9.45800357E-01 -2.44807956E-15  9.36402406E-02
  1.23039856E-01  1.03185113E-01  7.10675289E-02 -3.78412214E-03 -1.09662441E-04
 -9.23039497E-01  3.72912927E-01  2.43709006E-15  6.55628182E-02  1.63330293E+00
 -6.25477675E-01 -2.59104393E-15 -4.94580364E-01 -4.46618249E-01  4.99820669E-01
  3.88345937E-01  9.79708316E-02 -1.63059337E+00 -2.76520766E-02 -5.28740363E-02
 -5.18379241E-16  1.91746118E+00  1.16189581E-01  1.83786272E-01 -1.18132424E-15
 -1.44291351E-01 -4.35635255E-01 -1.34427217E-01 -3.57807195E-01
Total SCF Density                          R   N=          91
  2.04527248E+00  9.10058204E-02  1.25099457E-01  1.28476130E-02 -5.59481704E-03
  3.42621464E-01  3.54795623E-02 -2.19947287E-02  5.78872544E-02  4.55123448E-01
 -1.12183349E-15  2.10295989E-16  3.44515870E-16 -9.94398633E-16  5.48070388E-01
 -4.45813813E-01  3.34727394E-01 -8.27233472E-02 -1.96712376E-01  7.65461580E-16
  1.17422555E+00  1.50118142E-02 -1.35494843E-02  3.00463559E-01  1.00974308E-01
  1.25945133E-15 -1.11159748E-01  2.69481936E-01  3.70475918E-02 -3.39148361E-02
  1.01457650E-01  5.20783566E-01  8.71052063E-17 -2.53935535E-01  1.46188291E-01
  6.00194184E-01  4.99223201E-16  3.78443508E-16  3.67766777E-16 -1.14529866E-15
  6.59638558E-01  6.45181897E-16  1.47913732E-15  1.51184927E-16  7.93918148E-01
 -4.55217987E-02  4.86474693E-02  2.20388416E-01  2.96913870E-02  2.58184860E-16
  1.17116343E-01  1.89578295E-01  5.31045648E-02  2.51164399E-16  1.67897133E-01
  1.64205978E-02  4.31857239E-03  1.58717421E-01  3.83861292E-02 -2.18754540E-15
 -2.49119851E-02  1.40125009E-01  5.95800555E-02 -2.64179459E-15  1.04830177E-01
  7.42821573E-02 -4.01998136E-02  4.18588528E-02 -1.35923336E-01  1.59826933E-01
  2.27173731E-16  1.13155554E-01 -1.01232286E-01  1.63098116E-01  2.90638385E-16
 -6.63660252E-02 -5.54867260E-02  1.51398804E-01  1.07171005E-02  5.86543758E-03
 -1.00551937E-01  1.49970150E-01  6.32444412E-16 -1.00996824E-02 -6.99851660E-02
  1.58206748E-01  8.03405304E-16 -6.21087419E-02 -4.15283608E-02  1.13439424E-01
  9.33113319E-02
Mulliken Charges                           R   N=           3
 -7.43636739E-01  3.75263765E-01  3.68372974E-01
ONIOM Charges                              I   N=          16
           0           0           0           0           0           0
           0           0           0           0           0           0
           0           0           0           0
ONIOM Multiplicities                       I   N=          16
           1           0           0           0           0           0
           0           0           0           0           0           0
           0           0           0           0
Atom Layers                                I   N=           3
           1           1           1
Atom Modifiers                             I   N=           3
           0           0           0
Force Field                                I                0
Int Atom Modified Types                    I   N=           3
           0           0           0
Link Atoms                                 I   N=           3
           0           0           0
Atom Modified MM Charges                   R   N=           3
  0.00000000E+00  0.00000000E+00  0.00000000E+00
Link Distances                             R   N=          12
  0.00000000E+00  0.00000000E+00  0.00000000E+00  0.00000000E+00  0.00000000E+00
  0.00000000E+00  0.00000000E+00  0.00000000E+00  0.00000000E+00  0.00000000E+00
  0.00000000E+00  0.00000000E+00
Cartesian Gradient                         R   N=           9
  7.57856480E-02  3.98155296E-02  2.19506195E-16 -2.82634619E-02 -3.63011666E-02
 -3.79488210E-16 -4.75221861E-02 -3.51436301E-03  1.59982015E-16
Dipole Moment                              R   N=           3
  2.10938075E-01  6.19405152E-01  9.57567099E-16
Quadrupole Moment                          R   N=           6
  1.49867336E+00 -3.55009762E-01 -1.14366359E+00 -8.93128265E-01  2.54379665E-16
 -2.33881757E-16
QEq coupling tensors                       R   N=          18
 -1.93096495E+00  1.05336911E+00  1.86873828E-01  1.93181156E-15 -1.97787431E-15
  1.74409112E+00 -6.37793204E-01 -3.83518679E-03  3.01222216E-01  3.68549596E-16
 -4.57927688E-17  3.36570989E-01 -1.56464654E-01  3.25315154E-01 -8.05983009E-02
 -5.98258706E-16  5.99068809E-16  2.37062955E-01
