hessian                                                                 
Freq      RB3LYP                                                      3-21G               
Number of atoms                            I                3
Info1-9                                    I   N=           9
          12          12           0           0           0         100
           6          18        -502
Charge                                     I                0
Multiplicity                               I                1
Number of electrons                        I               10
Number of alpha electrons                  I                5
Number of beta electrons                   I                5
Number of basis functions                  I               13
Number of independent functions            I               13
Number of point charges in /Mol/           I                0
Number of translation vectors              I                0
Atomic numbers                             I   N=           3
           8           1           1
Nuclear charges                            R   N=           3
  8.00000000E+00  1.00000000E+00  1.00000000E+00
Current cartesian coordinates              R   N=           9
  0.00000000E+00  0.00000000E+00  0.00000000E+00  1.89360612E+00  0.00000000E+00
  0.00000000E+00 -3.01047357E-01  1.86970656E+00  0.00000000E+00
Force Field                                I                0
Int Atom Types                             I   N=           3
           0           0           0
MM charges                                 R   N=           3
  0.00000000E+00  0.00000000E+00  0.00000000E+00
Integer atomic weights                     I   N=           3
          16           1           1
Real atomic weights                        R   N=           3
  1.59949146E+01  1.00782504E+00  1.00782504E+00
Atom fragment info                         I   N=           3
           0           0           0
Atom residue num                           I   N=           3
           0           0           0
Nuclear spins                              I   N=           3
           0           1           1
Nuclear ZEff                               R   N=           3
 -5.60000000E+00 -1.00000000E+00 -1.00000000E+00
Nuclear ZNuc                               R   N=           3
  8.00000000E+00  1.00000000E+00  1.00000000E+00
Nuclear QMom                               R   N=           3
  0.00000000E+00  0.00000000E+00  0.00000000E+00
Nuclear GFac                               R   N=           3
  0.00000000E+00  2.79284600E+00  2.79284600E+00
MicOpt                                     I   N=           3
          -1          -1          -1
Number of contracted shells                I                7
Number of primitive shells                 I               12
Pure/Cartesian d shells                    I                1
Pure/Cartesian f shells                    I                0
Highest angular momentum                   I                1
Largest degree of contraction              I                3
Shell types                                I   N=           7
           0          -1          -1           0           0           0
           0
Number of primitives per shell             I   N=           7
           3           2           1           2           1           2
           1
Shell to atom map                          I   N=           7
           1           1           1           2           2           3
           3
Primitive exponents                        R   N=          12
  3.22037000E+02  4.84308000E+01  1.04206000E+01  7.40294000E+00  1.57620000E+00
  3.73684000E-01  5.44717800E+00  8.24547240E-01  1.83191580E-01  5.44717800E+00
  8.24547240E-01  1.83191580E-01
Contraction coefficients                   R   N=          12
  5.92393934E-02  3.51499961E-01  7.07657921E-01 -4.04453583E-01  1.22156176E+00
  1.00000000E+00  1.56284979E-01  9.04690877E-01  1.00000000E+00  1.56284979E-01
  9.04690877E-01  1.00000000E+00
P(S=P) Contraction coefficients            R   N=          12
  0.00000000E+00  0.00000000E+00  0.00000000E+00  2.44586107E-01  8.53955373E-01
  1.00000000E+00  0.00000000E+00  0.00000000E+00  0.00000000E+00  0.00000000E+00
  0.00000000E+00  0.00000000E+00
Coordinates of each shell                  R   N=          21
  0.00000000E+00  0.00000000E+00  0.00000000E+00  0.00000000E+00  0.00000000E+00
  0.00000000E+00  0.00000000E+00  0.00000000E+00  0.00000000E+00  1.89360612E+00
  0.00000000E+00  0.00000000E+00  1.89360612E+00  0.00000000E+00  0.00000000E+00
 -3.01047357E-01  1.86970656E+00  0.00000000E+00 -3.01047357E-01  1.86970656E+00
  0.00000000E+00
Constraint Structure                       R   N=           9
  0.00000000E+00  0.00000000E+00  0.00000000E+00  1.89360612E+00  0.00000000E+00
  0.00000000E+00 -3.01047357E-01  1.86970656E+00  0.00000000E+00
Num ILSW                                   I              100
ILSW                                       I   N=         100
           0           1           0           0           2           0
           0           0           0           0         402          -1
           0           0           0           0           2           0
           0           0           1           0           1           0
           1           1           0           0           0           0
           0           0      100000           0          -1           0
           0           0           0           0           0           0
           0           0           0           1           0           0
           0           0           1           0           0           0
           0           0           4          41           0           0
           0           0           5           0           0           0
           0           0           0           0           0           0
           0           0           0           0           0           0
           0           0           0           0           0           0
           0           0           0           0           0           0
           0           0           0           0           0           0
           0           0           0           0
Num RLSW                                   I               41
RLSW                                       R   N=          41
  8.00000000E-01  7.20000000E-01  1.00000000E+00  8.10000000E-01  2.00000000E-01
  0.00000000E+00  0.00000000E+00  1.00000000E+00  0.00000000E+00  0.00000000E+00
  0.00000000E+00  0.00000000E+00  1.00000000E+00  0.00000000E+00  0.00000000E+00
  0.00000000E+00  0.00000000E+00  1.00000000E+00  0.00000000E+00  0.00000000E+00
  0.00000000E+00  0.00000000E+00  1.00000000E+00  0.00000000E+00  0.00000000E+00
  0.00000000E+00  0.00000000E+00  1.00000000E+00  0.00000000E+00  0.00000000E+00
  0.00000000E+00  0.00000000E+00  1.00000000E+00  0.00000000E+00  0.00000000E+00
  0.00000000E+00  0.00000000E+00  0.00000000E+00  1.00000000E+00  1.00000000E+00
  0.00000000E+00
MxBond                                     I                2
NBond                                      I   N=           3
           2           1           1
IBond                                      I   N=           6
           2           3           1           0           1           0
RBond                                      R   N=           6
  1.00000000E+00  1.00000000E+00  1.00000000E+00  0.00000000E+00  1.00000000E+00
  0.00000000E+00
Virial Ratio                               R      2.007160949528515E+00
SCF Energy                                 R     -7.597331806736541E+01
Total Energy                               R     -7.597331806736541E+01
RMS Force                                  R      5.866108765360866E-03
RMS Density                                R      9.586233296647954E-09
External E-field                           R   N=          35
  0.00000000E+00  0.00000000E+00  0.00000000E+00  0.00000000E+00  0.00000000E+00
  0.00000000E+00  0.00000000E+00  0.00000000E+00  0.00000000E+00  0.00000000E+00
  0.00000000E+00  0.00000000E+00  0.00000000E+00  0.00000000E+00  0.00000000E+00
  0.00000000E+00  0.00000000E+00  0.00000000E+00  0.00000000E+00  0.00000000E+00
  0.00000000E+00  0.00000000E+00  0.00000000E+00  0.00000000E+00  0.00000000E+00
  0.00000000E+00  0.00000000E+00  0.00000000E+00  0.00000000E+00  0.00000000E+00
  0.00000000E+00  0.00000000E+00  0.00000000E+00  0.00000000E+00  0.00000000E+00
IOpCl                                      I                0
IROHF                                      I                0
Alpha Orbital Energies                     R   N=          13
 -1.90081808E+01 -9.79155204E-01 -4.83280102E-01 -3.37660616E-01 -2.59159338E-01
  8.47779594E-02  1.71465270E-01  8.93042112E-01  9.89042080E-01  1.43620211E+00
  1.54120231E+00  1.63177882E+00  2.73326363E+00
Alpha MO coefficients                      R   N=         169
  9.82192300E-01  1.02272844E-01  2.35013703E-03  2.75843668E-03  3.36619126E-16
 -4.10489937E-02 -4.79028177E-03 -5.62190929E-03 -3.55945122E-16  2.90689175E-03
  6.89216172E-03  2.90693154E-03  6.88995867E-03 -2.25803908E-01  2.16278515E-01
  7.57001401E-02  8.88343462E-02  3.21941977E-16  6.84604753E-01  7.53030521E-02
  8.83811950E-02 -3.30601577E-16  1.18919959E-01  3.02351791E-02  1.18884347E-01
  3.02375692E-02  1.19449050E-05 -7.52730920E-06  3.11337856E-01 -2.65200058E-01
  3.85398430E-17 -5.86390807E-05  2.67290534E-01 -2.27692467E-01 -1.78115657E-18
  2.28617885E-01  2.19032501E-01 -2.28604262E-01 -2.19056906E-01 -1.08220357E-01
  9.28135771E-02 -2.78967407E-01 -3.27485010E-01 -1.58377577E-15  4.88957400E-01
 -2.97897895E-01 -3.49715062E-01 -1.83685704E-15 -1.39020860E-01 -1.40530331E-01
 -1.39026619E-01 -1.40564072E-01 -3.19927199E-16  1.87312886E-16 -7.27775725E-16
 -1.26028254E-15  5.31429246E-01  1.44608289E-15 -7.20198038E-16 -1.46225436E-15
  6.22543941E-01 -4.06443074E-16 -8.44318215E-16 -2.49292149E-16  3.39581842E-16
 -1.05493065E-01  5.61682487E-02  1.80679438E-01  2.12239827E-01  3.23638611E-16
  9.25204618E-01  3.17633988E-01  3.73101098E-01  4.02477777E-16 -8.99382627E-02
 -7.90902989E-01 -9.00099475E-02 -7.91214839E-01  2.61531463E-05 -1.08787631E-05
 -2.84870636E-01  2.42611189E-01  7.97119755E-16 -2.86136165E-04 -5.47956532E-01
  4.66656626E-01  7.32374055E-16  1.09413409E-01  1.03750853E+00 -1.09416863E-01
 -1.03708142E+00  8.88561990E-06 -4.05228823E-05  1.43327283E-01 -1.22234763E-01
 -1.60168977E-16  1.18534263E-04  1.66233835E-01 -1.41553753E-01  3.05332109E-16
 -9.29959033E-01  8.62408470E-01  9.30515377E-01 -8.62874108E-01  5.23650078E-02
 -1.05457389E-01 -2.29177133E-01 -2.68932633E-01  5.36064362E-16  7.38410091E-02
 -8.07729944E-02 -9.45287750E-02 -5.52237907E-16  9.31974995E-01 -5.77071071E-01
  9.31325171E-01 -5.76642903E-01 -7.83077458E-16  2.05683459E-15 -9.78272788E-15
 -5.00047235E-15  1.02407520E+00  1.87495981E-15  1.23706900E-14  6.26061853E-15
 -9.71383599E-01 -5.30484000E-15 -1.96253736E-15 -3.64083419E-15  1.48827698E-15
 -5.51498389E-02  1.70652227E-01 -6.30768045E-01 -7.40253503E-01 -1.19717776E-14
  1.40575291E-01  7.71556060E-01  9.05393902E-01  1.12881784E-14 -3.57808265E-01
 -4.33568311E-02 -3.57772760E-01 -4.31635890E-02  4.37386118E-06 -2.81864694E-05
 -7.88018093E-01  6.71448366E-01 -4.65738901E-15  5.17490895E-05  1.05852572E+00
 -9.01905753E-01  4.24720594E-15 -1.76171164E-01 -4.59156307E-01  1.76305340E-01
  4.59085478E-01  8.89198804E-02 -1.62330025E+00 -1.11122917E-01 -1.30442974E-01
  4.34374595E-16  1.92207011E+00  3.39479963E-01  3.98417188E-01  1.47346501E-16
 -3.02607895E-01 -3.26978685E-01 -3.02590762E-01 -3.26848227E-01
Total SCF Density                          R   N=          91
  2.05480153E+00  8.31414937E-02  1.31700981E-01  3.08171408E-02 -1.85632748E-02
  3.60980219E-01  3.61750996E-02 -2.17959708E-02  3.10441635E-02  3.70953305E-01
  5.18615054E-16  1.13206978E-16  1.84443161E-16 -2.63561799E-16  5.64834087E-01
 -4.95639160E-01  3.78497975E-01 -1.69386459E-01 -1.98814967E-01  4.01349453E-16
  1.41889606E+00  2.10662162E-02 -2.37089294E-02  3.44021318E-01  6.66958276E-02
  2.44002431E-16 -1.87851180E-01  3.31761763E-01  2.47299079E-02 -2.78332140E-02
  6.66941520E-02  3.65492548E-01 -4.10857098E-16 -2.20490911E-01  1.00003288E-01
  3.63974650E-01 -5.50677730E-16 -3.23560589E-16  6.58664596E-17 -4.25832761E-16
  6.61676115E-01 -4.19229642E-16  1.50349207E-16 -5.89506670E-16  7.75121918E-01
 -1.78996939E-02  2.62247682E-02  2.37937560E-01 -9.06006680E-03  1.04513744E-16
  2.66103206E-02  2.22925058E-01  1.41141283E-02 -7.68485058E-17  1.71486687E-01
  3.03061311E-02 -1.16013417E-02  2.19402993E-01 -1.87218421E-02 -4.11262748E-16
 -9.66199166E-02  2.05305580E-01  3.81399423E-03 -5.60660443E-16  1.46453991E-01
  1.37371357E-01 -1.78932093E-02  2.62151861E-02 -4.67657440E-02  2.33448058E-01
  2.36295739E-16  2.66095466E-02 -2.14991779E-02  2.22323938E-01  1.20491652E-16
 -3.75785019E-02 -5.38395637E-02  1.71460495E-01  3.02975611E-02 -1.16004264E-02
 -5.33654643E-02  2.13663342E-01  8.13394618E-16 -9.65980802E-02 -2.88682394E-02
  2.03337356E-01  9.15083725E-16 -5.38462189E-02 -5.45306826E-02  1.46468584E-01
  1.37411937E-01
Mulliken Charges                           R   N=           3
 -6.25378896E-01  3.12705993E-01  3.12672904E-01
ONIOM Charges                              I   N=          16
           0           0           0           0           0           0
           0           0           0           0           0           0
           0           0           0           0
ONIOM Multiplicities                       I   N=          16
           1           0           0           0           0           0
           0           0           0           0           0           0
           0           0           0           0
Atom Layers                                I   N=           3
           1           1           1
Atom Modifiers                             I   N=           3
           0           0           0
Force Field                                I                0
Int Atom Modified Types                    I   N=           3
           0           0           0
Link Atoms                                 I   N=           3
           0           0           0
Atom Modified MM Charges                   R   N=           3
  0.00000000E+00  0.00000000E+00  0.00000000E+00
Link Distances                             R   N=          12
  0.00000000E+00  0.00000000E+00  0.00000000E+00  0.00000000E+00  0.00000000E+00
  0.00000000E+00  0.00000000E+00  0.00000000E+00  0.00000000E+00  0.00000000E+00
  0.00000000E+00  0.00000000E+00
Cartesian Gradient                         R   N=           9
 -8.52768791E-03 -1.01114344E-02  1.98274734E-15  5.47762649E-04  8.18930286E-03
  1.57828314E-15  7.97992526E-03  1.92213152E-03 -3.56103047E-15
Cartesian Force Constants                  R   N=          45
  4.52252107E-01 -6.40836909E-02  4.31310711E-01  4.17683685E-12  1.06056773E-12
  1.06747496E-02 -3.99816642E-01  3.95271353E-02 -2.44632302E-12  4.22514014E-01
 -3.13336939E-02 -4.20615941E-02 -1.15430554E-13 -2.84754836E-02  5.69181450E-02
 -6.18650808E-12 -3.19629301E-12 -5.30721368E-03  5.17836711E-12  1.84275671E-12
  9.28632048E-04 -5.24354650E-02  2.45565556E-02 -2.43589309E-12 -2.26973720E-02
  5.98091775E-02  1.33874349E-12  7.51328370E-02  9.54173848E-02 -3.89249117E-01
 -4.21765310E-13 -1.10516517E-02 -1.48565509E-02  1.68091273E-12 -8.43657331E-02
  4.04105668E-01  3.28548599E-12  2.15029959E-12 -5.36753594E-03 -3.24038814E-12
 -1.71651793E-12  4.37858163E-03  3.29678888E-13 -1.28452995E-12  9.88954308E-04
Dipole Moment                              R   N=           3
  5.84198657E-01  6.85768500E-01 -2.72810631E-16
Dipole Derivatives                         R   N=          27
 -1.60197477E-01  5.21316085E-02  4.21730712E-12  5.20700320E-02 -1.43368488E-01
 -1.35753961E-12 -3.63418712E-11 -1.91325451E-11 -7.33608163E-01 -1.02489102E-01
 -1.50543101E-02 -4.24337586E-12 -9.58370131E-02  2.54281964E-01 -5.57326784E-13
  8.85111241E-11  2.62911534E-12  3.66829133E-01  2.62686578E-01 -3.70772984E-02
  1.01031295E-12  4.37669811E-02 -1.10913476E-01  9.12539156E-13 -5.44728745E-11
  1.51246640E-11  3.66779030E-01
Polarizability                             R   N=           6
  6.36935391E+00 -1.23303810E+00  5.97354630E+00 -4.08081400E-12  1.64015268E-12
  7.92623299E-01
QEq coupling tensors                       R   N=          18
 -1.21957401E+00  5.89979553E-01 -1.02992202E+00  0.00000000E+00  0.00000000E+00
  2.24949603E+00 -4.59016334E-01  3.22258507E-02  1.96546671E-01  0.00000000E+00
  0.00000000E+00  2.62469663E-01  1.69760662E-01  1.33426760E-01 -4.32096212E-01
  0.00000000E+00  0.00000000E+00  2.62335549E-01
