                                                                        
Force     RB3LYP                                                      3-21G               
Number of atoms                            I                6
Info1-9                                    I   N=           9
          14          14           0           0           0         100
           5          18        -502
Charge                                     I                0
Multiplicity                               I                1
Number of electrons                        I               16
Number of alpha electrons                  I                8
Number of beta electrons                   I                8
Number of basis functions                  I               26
Number of independent functions            I               26
Number of point charges in /Mol/           I                0
Number of translation vectors              I                0
Atomic numbers                             I   N=           6
           6           6           1           1           1           1
Nuclear charges                            R   N=           6
  6.00000000E+00  6.00000000E+00  1.00000000E+00  1.00000000E+00  1.00000000E+00
  1.00000000E+00
Current cartesian coordinates              R   N=          18
 -1.93269937E+00  1.51717322E+00 -1.25884140E+00 -7.66915294E-01  1.51717322E+00
  1.25479329E+00  8.90324778E-01  8.24453846E-01 -2.34156015E+00 -2.81085632E+00
 -5.27674543E-01 -1.70235404E+00 -2.99935169E+00  2.00508953E+00  2.16684241E+00
 -5.73300528E-01  1.05423681E+00  3.34539740E+00
Force Field                                I                0
Int Atom Types                             I   N=           6
           0           0           0           0           0           0
MM charges                                 R   N=           6
  0.00000000E+00  0.00000000E+00  0.00000000E+00  0.00000000E+00  0.00000000E+00
  0.00000000E+00
Integer atomic weights                     I   N=           6
          12          12           1           1           1           1
Real atomic weights                        R   N=           6
  1.20000000E+01  1.20000000E+01  1.00782504E+00  1.00782504E+00  1.00782504E+00
  1.00782504E+00
Atom fragment info                         I   N=           6
           0           0           0           0           0           0
Atom residue num                           I   N=           6
           0           0           0           0           0           0
Nuclear spins                              I   N=           6
           0           0           1           1           1           1
Nuclear ZEff                               R   N=           6
 -3.60000000E+00 -3.60000000E+00 -1.00000000E+00 -1.00000000E+00 -1.00000000E+00
 -1.00000000E+00
Nuclear ZNuc                               R   N=           6
  6.00000000E+00  6.00000000E+00  1.00000000E+00  1.00000000E+00  1.00000000E+00
  1.00000000E+00
Nuclear QMom                               R   N=           6
  0.00000000E+00  0.00000000E+00  0.00000000E+00  0.00000000E+00  0.00000000E+00
  0.00000000E+00
Nuclear GFac                               R   N=           6
  0.00000000E+00  0.00000000E+00  2.79284600E+00  2.79284600E+00  2.79284600E+00
  2.79284600E+00
MicOpt                                     I   N=           6
          -1          -1          -1          -1          -1          -1
Number of contracted shells                I               14
Number of primitive shells                 I               24
Pure/Cartesian d shells                    I                1
Pure/Cartesian f shells                    I                0
Highest angular momentum                   I                1
Largest degree of contraction              I                3
Shell types                                I   N=          14
           0          -1          -1           0          -1          -1
           0           0           0           0           0           0
           0           0
Number of primitives per shell             I   N=          14
           3           2           1           3           2           1
           2           1           2           1           2           1
           2           1
Shell to atom map                          I   N=          14
           1           1           1           2           2           2
           3           3           4           4           5           5
           6           6
Primitive exponents                        R   N=          24
  1.72256000E+02  2.59109000E+01  5.53335000E+00  3.66498000E+00  7.70545000E-01
  1.95857000E-01  1.72256000E+02  2.59109000E+01  5.53335000E+00  3.66498000E+00
  7.70545000E-01  1.95857000E-01  5.44717800E+00  8.24547240E-01  1.83191580E-01
  5.44717800E+00  8.24547240E-01  1.83191580E-01  5.44717800E+00  8.24547240E-01
  1.83191580E-01  5.44717800E+00  8.24547240E-01  1.83191580E-01
Contraction coefficients                   R   N=          24
  6.17669074E-02  3.58794043E-01  7.00713084E-01 -3.95895162E-01  1.21583436E+00
  1.00000000E+00  6.17669074E-02  3.58794043E-01  7.00713084E-01 -3.95895162E-01
  1.21583436E+00  1.00000000E+00  1.56284979E-01  9.04690877E-01  1.00000000E+00
  1.56284979E-01  9.04690877E-01  1.00000000E+00  1.56284979E-01  9.04690877E-01
  1.00000000E+00  1.56284979E-01  9.04690877E-01  1.00000000E+00
P(S=P) Contraction coefficients            R   N=          24
  0.00000000E+00  0.00000000E+00  0.00000000E+00  2.36459947E-01  8.60618806E-01
  1.00000000E+00  0.00000000E+00  0.00000000E+00  0.00000000E+00  2.36459947E-01
  8.60618806E-01  1.00000000E+00  0.00000000E+00  0.00000000E+00  0.00000000E+00
  0.00000000E+00  0.00000000E+00  0.00000000E+00  0.00000000E+00  0.00000000E+00
  0.00000000E+00  0.00000000E+00  0.00000000E+00  0.00000000E+00
Coordinates of each shell                  R   N=          42
 -1.93269937E+00  1.51717322E+00 -1.25884140E+00 -1.93269937E+00  1.51717322E+00
 -1.25884140E+00 -1.93269937E+00  1.51717322E+00 -1.25884140E+00 -7.66915294E-01
  1.51717322E+00  1.25479329E+00 -7.66915294E-01  1.51717322E+00  1.25479329E+00
 -7.66915294E-01  1.51717322E+00  1.25479329E+00  8.90324778E-01  8.24453846E-01
 -2.34156015E+00  8.90324778E-01  8.24453846E-01 -2.34156015E+00 -2.81085632E+00
 -5.27674543E-01 -1.70235404E+00 -2.81085632E+00 -5.27674543E-01 -1.70235404E+00
 -2.99935169E+00  2.00508953E+00  2.16684241E+00 -2.99935169E+00  2.00508953E+00
  2.16684241E+00 -5.73300528E-01  1.05423681E+00  3.34539740E+00 -5.73300528E-01
  1.05423681E+00  3.34539740E+00
Constraint Structure                       R   N=          18
 -1.93269937E+00  1.51717322E+00 -1.25884140E+00 -7.66915294E-01  1.51717322E+00
  1.25479329E+00  8.90324778E-01  8.24453846E-01 -2.34156015E+00 -2.81085632E+00
 -5.27674543E-01 -1.70235404E+00 -2.99935169E+00  2.00508953E+00  2.16684241E+00
 -5.73300528E-01  1.05423681E+00  3.34539740E+00
Num ILSW                                   I              100
ILSW                                       I   N=         100
           0           1           0           0           2           0
           0           0           0           0         402          -1
           0           0           0           0           2           0
           0           0           1           0           1           0
           1           1           0           0           0           0
           0           0      100000           0          -1           0
           0           0           0           0           0           0
           0           0           0           1           0           0
           0           0           1           0           0           0
           0           0           4          41           0           0
           0           0           5           0           0           0
           0           0           0           0           0           0
           0           0           0           0           0           0
           0           0           0           0           0           0
           0           0           0           0           0           0
           0           0           0           0           0           0
           0           0           0           0
Num RLSW                                   I               41
RLSW                                       R   N=          41
  8.00000000E-01  7.20000000E-01  1.00000000E+00  8.10000000E-01  2.00000000E-01
  0.00000000E+00  0.00000000E+00  1.00000000E+00  0.00000000E+00  0.00000000E+00
  0.00000000E+00  0.00000000E+00  1.00000000E+00  0.00000000E+00  0.00000000E+00
  0.00000000E+00  0.00000000E+00  1.00000000E+00  0.00000000E+00  0.00000000E+00
  0.00000000E+00  0.00000000E+00  1.00000000E+00  0.00000000E+00  0.00000000E+00
  0.00000000E+00  0.00000000E+00  1.00000000E+00  0.00000000E+00  0.00000000E+00
  0.00000000E+00  0.00000000E+00  1.00000000E+00  0.00000000E+00  0.00000000E+00
  0.00000000E+00  0.00000000E+00  0.00000000E+00  1.00000000E+00  1.00000000E+00
  0.00000000E+00
MxBond                                     I                2
NBond                                      I   N=           6
           2           2           0           1           0           1
IBond                                      I   N=          12
           2           4           1           6           0           0
           1           0           0           0           2           0
RBond                                      R   N=          12
  1.00000000E+00  1.00000000E+00  1.00000000E+00  1.00000000E+00  0.00000000E+00
  0.00000000E+00  1.00000000E+00  0.00000000E+00  0.00000000E+00  0.00000000E+00
  1.00000000E+00  0.00000000E+00
Virial Ratio                               R      2.016761871631820E+00
SCF Energy                                 R     -7.786523225973753E+01
Total Energy                               R     -7.786523225973753E+01
RMS Force                                  R      6.330947180486769E-02
RMS Density                                R      8.523176737834219E-09
External E-field                           R   N=          35
  0.00000000E+00  0.00000000E+00  0.00000000E+00  0.00000000E+00  0.00000000E+00
  0.00000000E+00  0.00000000E+00  0.00000000E+00  0.00000000E+00  0.00000000E+00
  0.00000000E+00  0.00000000E+00  0.00000000E+00  0.00000000E+00  0.00000000E+00
  0.00000000E+00  0.00000000E+00  0.00000000E+00  0.00000000E+00  0.00000000E+00
  0.00000000E+00  0.00000000E+00  0.00000000E+00  0.00000000E+00  0.00000000E+00
  0.00000000E+00  0.00000000E+00  0.00000000E+00  0.00000000E+00  0.00000000E+00
  0.00000000E+00  0.00000000E+00  0.00000000E+00  0.00000000E+00  0.00000000E+00
IOpCl                                      I                0
IROHF                                      I                0
Alpha Orbital Energies                     R   N=          26
 -1.02041088E+01 -1.01980783E+01 -7.69866530E-01 -5.96422175E-01 -4.44342611E-01
 -3.83425961E-01 -2.89590206E-01 -2.13612418E-01 -1.09636047E-01  2.05706032E-02
  4.81145204E-02  8.92812764E-02  1.32915415E-01  3.18713641E-01  6.99077767E-01
  7.13951235E-01  7.36834575E-01  8.04830340E-01  8.53545761E-01  8.99251385E-01
  9.18101732E-01  9.41124187E-01  1.01267162E+00  1.06104248E+00  1.43175510E+00
  1.69677451E+00
Alpha MO coefficients                      R   N=         676
 -7.86767036E-02 -1.05347644E-02 -9.82215398E-04  1.70912395E-05 -1.13051738E-03
  2.47067958E-02  5.54352487E-03  2.67865630E-04  1.28777527E-02  9.82444096E-01
  1.04236827E-01 -2.99592722E-03  3.83418217E-04  4.24950788E-04 -6.60597151E-02
  1.34660737E-02 -4.47290145E-04  7.33060880E-03 -1.05548068E-03  1.15859284E-03
 -1.39174956E-03  2.07821732E-03  1.86962082E-03  9.84036221E-03 -1.95638280E-03
  8.10214701E-03  9.82821314E-01  1.05604296E-01  1.50609903E-03 -2.54010529E-03
  1.78425275E-03 -7.03962577E-02 -8.04199946E-03  1.04390479E-02 -1.32360163E-02
  7.86054049E-02  6.11701032E-03  2.77018226E-04 -1.20821118E-04  1.33559016E-03
  1.80789925E-02 -4.97812331E-03 -1.49742785E-03 -1.67937021E-02  1.87123084E-03
  6.37258718E-03  4.80493330E-04  1.42271259E-02 -7.27455315E-04  4.27514795E-03
  4.02215618E-04  3.62291653E-03 -1.40844243E-01  1.46755449E-01  3.50386822E-02
 -2.93330754E-02  1.19103685E-01  3.37017215E-01  1.72106538E-02 -4.05451967E-02
  4.66586917E-02 -1.74391713E-01  1.85998242E-01 -8.83188488E-02 -3.77999252E-03
 -5.12175541E-02  4.25003531E-01 -7.02910208E-02  2.68744683E-03  1.56054372E-02
  2.55478558E-02  3.34004108E-03  6.83784619E-02 -4.97371120E-04  9.07921102E-02
  1.01945319E-02  9.09735343E-02  2.02660521E-02 -1.37380576E-01  1.39318198E-01
  6.86472152E-03 -7.03700740E-02  6.18172288E-03  4.46185502E-01  9.69723419E-03
 -6.76770526E-02  3.74278705E-02  9.31193554E-02 -9.37525645E-02 -1.12960583E-02
  2.75480368E-03 -2.61860637E-01 -3.48916490E-01  3.55189782E-02  6.41563392E-03
 -1.27898545E-01  3.77611749E-02  1.89826855E-02  1.19179285E-01  5.78083959E-02
 -8.42836455E-02 -5.42925933E-02 -2.12480915E-01 -1.31137407E-01 -3.15066940E-02
  2.04696612E-02 -1.68555865E-01 -2.10496487E-01 -2.18937372E-01  1.86890169E-01
 -7.46235034E-02 -1.37872799E-01 -8.62968899E-02  4.59628580E-02 -4.99663950E-02
  6.81013125E-02 -1.02025569E-01  2.52839469E-01 -1.92093635E-01  6.09571849E-02
 -8.18163787E-02  2.00003180E-01  4.22209845E-03  9.83233217E-03  2.30927233E-01
  2.35700549E-01 -1.26487373E-02  1.80151141E-03  1.36654179E-01  1.16947564E-01
 -3.43490202E-03 -4.13360810E-03  2.05691236E-01 -1.07963188E-02 -8.04081864E-02
  5.35134614E-02  1.85374266E-01 -1.59518763E-02 -5.01593647E-02 -5.35834526E-02
  6.21981689E-02  2.99126308E-01 -7.35641062E-02 -3.27464341E-02  1.67686742E-01
  2.59917773E-01 -5.84239911E-02 -1.41069967E-02  1.08638659E-01  1.46555846E-01
 -4.09397481E-02 -4.26300474E-02 -1.85730309E-01 -2.48734848E-01  8.67753092E-02
  1.09521977E-01 -8.08458423E-02  7.42400830E-02 -3.66700222E-02  2.53074318E-01
 -2.41248625E-01  3.74629166E-01 -2.87277807E-02  2.39003526E-01 -2.01580006E-01
  3.84798111E-02 -4.26197978E-02  4.81313795E-02  2.63878285E-01  1.40991903E-01
 -1.65230209E-01  5.57520078E-02  2.96585893E-01  8.81958970E-02  6.43378253E-02
  1.32203141E-01 -4.30398005E-02 -4.69181899E-02  4.19102776E-02  1.04269163E-01
  3.49035398E-02  6.34974171E-02  3.69519475E-02 -4.01217905E-02  2.13006726E-01
 -8.32073814E-02 -1.02262751E-01 -1.92381220E-01  2.30941027E-01 -1.04342398E-01
 -1.36460458E-01  5.17626377E-02 -5.67883313E-02 -2.08466134E-01 -9.63072907E-02
  4.58740034E-02 -2.31597870E-01 -2.20946804E-01 -1.29397858E-01  5.78783124E-03
  2.10941634E-01  4.35862475E-01 -5.65402227E-02 -8.17163305E-02  1.71658774E-01
  3.54910689E-01 -3.06613856E-02 -4.05544079E-02 -9.30043531E-02  8.79345374E-02
 -5.94003412E-02  2.18808563E-01 -1.64864353E-02  4.89706787E-01 -1.12408065E-01
  2.24472826E-01 -5.80159977E-02  4.57802820E-02 -4.00671960E-02 -9.08551014E-02
 -3.62932118E-01  1.47774784E-02 -2.76080636E-01 -1.42477844E-01 -4.63201249E-01
 -6.11682838E-02 -2.34577418E-02 -6.52237662E-02 -1.56532511E-01 -3.52119935E-01
 -6.46926281E-02 -1.48710329E-01  1.08648975E-01  2.73736200E-01  5.93570240E-02
 -6.55261355E-02 -3.37747521E-01  9.15306849E-02  6.27499078E-02 -3.34080349E-01
 -5.68858919E-01  2.08621238E-01  1.80484861E-01 -2.77705758E-02  5.65929409E-03
  1.98172733E-01 -1.08361515E-01  5.18581437E-03  2.84822806E-01  4.17442222E-01
 -2.39104936E-01 -1.22864595E-02  1.31451616E-01  6.42905641E-01 -3.65280723E-02
  7.04051101E-02  5.06321071E-02  3.96229051E-01 -1.09414284E-01 -4.65560517E-01
  8.90756881E-04 -8.26960612E-03  1.32111374E-01  6.55586801E-03 -3.06456594E-01
 -1.59639385E-02  1.84870486E-01  3.47976673E-02 -4.51386568E-01 -4.92968948E-02
  3.07626679E-02  1.97412953E-01 -1.55241804E-01 -3.62416603E-02  4.46741849E-01
  3.15717837E-01 -2.88949033E-01 -6.90088421E-02 -1.51993988E-01 -5.67631747E-01
 -1.62164547E-02 -6.91067045E-03  1.60268222E-01  7.52890974E-01 -1.54312379E-01
 -6.19675566E-01  7.27276693E-03 -1.59357272E-02 -7.09092642E-02 -1.04344764E-02
 -1.33316493E-01  1.56706667E-02 -4.28381887E-02 -2.93792612E-02 -2.34165990E-01
 -1.33723898E-01  7.76737454E-02 -2.02024495E-01 -1.83551235E-02  2.45133610E-01
  1.47730483E+00 -5.03674021E-01 -5.64300992E-02  6.82363736E-01  1.99050697E-02
  1.21417685E-01 -2.37315794E-02 -1.62567324E-01 -5.97715457E-02 -8.89873477E-01
 -7.13252263E-02 -1.22573255E+00  1.01496508E-01 -4.37793405E-02  1.41642770E-01
  3.46532357E-01  2.68985675E-02 -1.24329904E+00  2.74151429E-01  9.16518109E-01
 -4.33836176E-02 -1.73474153E-02 -1.32245757E-02 -7.68637989E-02 -6.13960443E-02
 -1.62738654E-02  3.05729742E-01 -2.69169746E-01 -2.45215409E-01 -1.73200832E-01
 -2.21012280E-02  5.43734582E-02  1.04604401E-01  1.55523522E+00 -2.97351632E-02
 -1.58060820E-01  2.98951541E-03  3.61121880E-02 -1.10537515E-01  1.53698330E-02
  1.64310326E-01  6.99596227E-02  1.92114693E-01  1.90585800E+00  8.48948650E-01
  1.45599984E-01  1.47629779E+00  8.98033198E-02 -3.36846090E-02  1.69251659E-01
 -7.51574472E-02  3.80398084E-01 -1.32260819E+00  7.83719809E-01 -1.83026042E-01
  1.88745418E+00  2.43672702E-02 -1.55144179E-01  4.60222387E-02  1.89105265E-01
 -4.28505629E-03  3.57639816E-01  1.15971761E-01 -1.39403746E+00 -3.70757683E-02
  5.91198371E-02 -1.81670842E-01  3.49402100E-01 -5.43640307E-01  4.03260889E-01
  2.93407925E-01 -2.04049147E-01  8.17698579E-01 -7.81760289E-03 -5.00275418E-02
 -6.33490486E-02  7.62723017E-01  7.71646341E-02 -4.57151775E-01  1.76536557E-01
 -7.10354470E-01  1.83369647E-01  6.19956685E-02 -1.16026545E-01 -2.03654058E-02
 -5.02084688E-02  1.36435492E-01 -1.72474373E-01 -2.64202696E-01  2.12239159E-01
 -3.78456187E-03 -2.77513285E-02 -2.37659313E-01  1.68464599E-01 -4.81345198E-01
  6.41012512E-01  3.46359038E-01 -1.77186664E-01  8.69459331E-01  3.52225121E-03
 -7.77713590E-02 -5.86234232E-01 -6.02217398E-01 -1.08643338E-01 -5.85866562E-01
  7.49591376E-01  5.67832498E-01  4.62724946E-01  4.33550148E-02 -7.76839710E-02
  2.98715702E-01 -1.51575965E-01  1.22035123E-01 -7.46073132E-02 -2.61981158E-01
  1.77284816E-01  8.44034585E-03 -4.93261691E-02  6.34749205E-01 -3.88061080E-01
 -7.45823522E-02 -6.78003992E-02 -8.45335505E-01  4.23334771E-01  2.02912509E-01
  2.58128177E-02 -9.40158487E-02 -6.10543127E-01  2.01906023E-01  2.62819128E-01
 -5.81067994E-02  8.57105346E-01 -2.85523871E-01 -2.84361385E-01 -2.66202737E-01
  4.01624025E-01 -2.01960885E-01  1.81781171E-01 -9.60092223E-02  3.08892217E-01
 -8.42331456E-02  6.62328861E-02  2.52453440E-02 -1.24271109E-01 -3.47614907E-01
 -8.31664290E-01 -3.71449083E-01 -5.00812536E-01  5.05281176E-01  1.27892166E+00
  4.26832804E-01 -1.45526170E-02 -3.06107758E-02  2.22015906E-01  4.17320186E-02
  2.26561685E-01 -1.94728194E-01 -4.61043277E-01 -2.67388997E-01 -5.85352750E-01
  1.64964114E-02 -2.69830919E-02  2.38860435E-01  5.16783411E-01  6.48087728E-02
 -2.53366956E-01  7.35815927E-02  3.89499892E-01  4.00764569E-03 -2.75766955E-02
  5.63593016E-01  8.81321549E-02 -6.60121881E-01  8.68226191E-03 -7.55716511E-01
 -2.13648506E-01  7.57453918E-01 -1.81978396E-02  1.10176541E-01  4.53250891E-01
 -2.11253292E-01 -3.19804822E-01 -3.93268965E-02 -5.83599719E-01  3.74745524E-01
  2.45567281E-01 -1.55684147E-01  6.68490717E-01 -3.98201468E-02 -1.49131759E-01
  5.61794163E-02 -6.26850862E-01  3.06654466E-01 -1.08660588E-01 -3.70039181E-03
 -3.34457924E-03 -2.79365286E-01 -1.50042629E-02 -2.83409946E-01 -9.61412833E-02
  4.38820853E-01 -1.16747404E-01  1.63439021E-01 -2.38573086E-02  1.63945129E-01
 -1.58117400E-01 -4.19692305E-02 -3.65703864E-02 -4.48740925E-01  2.04841741E-01
  1.08050318E-01 -3.99349283E-02  1.77441543E-01 -3.51050064E-01 -5.92030817E-01
  6.10012547E-01 -9.77171876E-01  1.18758028E+00  3.24959738E-01 -4.13429468E-01
 -2.86025436E-02  6.79037546E-02  1.35344425E-01  1.03270931E-01 -2.34313010E-02
 -8.88473930E-01 -3.78380149E-01 -3.75465347E-01 -3.40270806E-01 -3.36998295E-02
 -9.49864494E-03  3.56061430E-01 -3.17750141E-01  7.54911710E-01  9.81816674E-02
 -7.54799226E-01  5.74421017E-01 -1.56248361E+00  9.29789877E-02 -8.59162193E-02
 -3.39696540E-01  1.00716197E-01 -1.02544465E-01 -3.43712858E-01 -7.89502036E-01
  1.71193195E+00 -5.04513702E-02  2.29462059E-01 -2.69941407E-01 -2.47235401E-01
 -1.32483689E-02  2.72663030E-01  5.61161761E-01  3.28868313E-01  5.50391641E-01
  3.75369391E-02 -3.54106193E-01  4.31564684E-02 -8.38100072E-02 -3.78960096E-01
  1.54510995E-01  5.31938799E-02  6.22644307E-02  1.42012889E+00 -3.85919652E-01
  3.26302679E-01 -8.97997582E-01  1.15374656E+00  4.29571452E-01 -7.16730886E-01
 -2.03031701E-01 -4.95538268E-01  1.96650613E-03 -2.75287596E-01  2.53274812E-01
 -2.67927269E-01  6.70564595E-03  1.31959080E+00  1.85992721E-01  4.42962051E-01
  4.96001261E-01 -1.59030418E-02  1.07411154E-02  1.98322850E-02  6.12956262E-02
 -4.67260737E-01 -2.04140942E-01  2.84665225E-01 -2.80295185E-01  1.69066879E+00
  9.29747894E-01 -7.63935008E-01 -1.02688554E-01  2.84375716E-01 -6.31957911E-02
 -2.01989998E-01 -5.26528534E-01 -4.65531257E-01  5.60361954E-03  1.37045440E-01
 -2.86395295E-02 -8.50786707E-02  6.28352395E-02  5.40745542E-01  3.96229781E-01
  3.36574864E-01  3.75355472E-01 -3.25605541E-02  1.15932406E-01  1.52601129E-01
  7.56643666E-02 -3.60037795E-01 -2.93522664E-01 -1.77502081E-01 -2.86145560E-01
  1.64212805E+00 -6.88672734E-01  8.46405061E-01  4.26599520E-01 -2.22629891E-01
 -6.54350735E-01  3.01748089E-01 -6.92501360E-01 -3.79017909E-01  2.48555074E-02
 -9.21521251E-01 -1.29869054E-02  1.53706914E-01 -4.23473198E-02  7.58027272E-01
 -4.34747698E-02 -4.82100828E-01 -2.87034242E-01  2.07034983E-02 -1.50931317E+00
  1.75325701E-01  4.43067476E-03  6.82967468E-03  2.06311030E+00 -6.13828765E-01
  9.98007793E-02  8.15081490E-02 -6.85289772E-02 -1.76168832E-01  8.07290506E-02
 -6.81718556E-01 -3.01939641E-01 -4.24017845E-01 -3.62451737E-03 -4.15769671E-01
 -1.93304209E-02 -1.64218515E+00 -1.42875779E-01  1.28868056E-01  2.31854611E-02
  3.75065305E+00  7.20287577E-01 -5.14928070E-01  1.20552006E+00  1.91686667E-02
  9.91220390E-01 -7.20215312E-02  1.18594189E-02  3.84062884E-03 -2.88253139E+00
  7.93001504E-01  7.03616174E-02  1.33901708E+00 -3.24995701E-01 -1.11529662E-01
 -3.21358062E-01 -3.72661231E-01  2.83616936E-01 -3.27344954E-03 -1.09813369E-01
  1.59611559E-02
Total SCF Density                          R   N=         351
  2.03948850E+00  1.13388812E-01  1.19534825E-01  2.22383373E-02 -1.86024580E-02
  2.37429173E-01 -1.11289733E-02  6.97095357E-03  9.48206167E-03  2.42428479E-01
  1.42351152E-02  1.16824921E-03  2.32946542E-02 -1.90487852E-02  2.74571964E-01
 -4.46726247E-01  2.86123999E-01 -1.20938101E-01  5.95889276E-02 -1.46361701E-01
  1.06675467E+00  9.48823838E-04 -2.14464274E-02  2.03211164E-01 -2.78927003E-02
 -2.63293600E-02 -9.67744404E-02  1.89153952E-01  1.29346539E-02  9.78897523E-03
 -2.58031297E-02  2.08573833E-01 -4.14997637E-02  7.68025964E-02 -5.01361061E-02
  1.87213069E-01 -2.31792815E-02 -1.04210183E-03 -3.11746789E-02 -4.98441606E-02
  1.82525950E-01 -6.88061442E-02 -5.44760913E-02 -5.16022134E-02  1.46275956E-01
  1.85331925E-02 -2.54523804E-02 -3.09440460E-02 -1.05710864E-02 -8.29930125E-02
  2.33901733E-02  4.02875778E-04  3.31865814E-04 -1.82788677E-02  2.03920547E+00
 -2.55965135E-02  2.32342870E-02  3.29253949E-02  9.82637921E-03  8.69883285E-02
  2.38938364E-02  1.23777625E-02  1.06263421E-03  4.79272634E-02  1.03024097E-01
  1.31388476E-01 -5.37077773E-04 -4.75870218E-03  1.42071302E-03  3.06940004E-02
 -7.96809666E-02  1.03945014E-01 -1.61226202E-03  4.68839195E-02 -1.34434667E-02
 -2.08162443E-02  1.86214363E-02  2.95651936E-01 -4.28400164E-02  4.29645687E-02
 -5.64782013E-02  1.93963753E-01 -5.19861784E-02  1.88706359E-01 -7.17611477E-02
  1.76644951E-01 -5.52455146E-02  1.14084277E-02 -1.23542525E-02  8.25228758E-03
  1.89499554E-01  5.38206902E-02 -5.98484749E-02 -9.66850730E-02 -2.15553920E-03
 -1.98290557E-01 -8.93758407E-02 -4.36470095E-02  2.87725567E-02 -1.34121382E-01
  1.24917821E-02 -1.64164058E-02  2.42538073E-02  1.77436015E-02  3.16358924E-01
  4.26345172E-02  1.75329682E-02  7.23715126E-02  5.62386653E-02  2.81376012E-01
 -1.19249358E-01  2.00445876E-04  3.00745272E-02  1.57515988E-01 -4.12494788E-01
  2.90417258E-01  8.80274376E-02 -3.32571662E-02 -3.67690232E-02  9.06037716E-01
 -3.28333765E-02  1.42849327E-02 -1.63185332E-02  3.28632634E-02 -6.65544937E-02
  1.63071312E-01 -1.94894411E-02  4.84526316E-02 -2.19339567E-03  1.59740904E-02
  1.65217354E-02  2.72815861E-01  2.20400681E-02 -2.15189040E-03  6.11750337E-02
  2.59214692E-01 -5.73544049E-02  5.38235454E-02 -7.30574151E-02  2.06302900E-01
 -7.07006993E-02  2.42897875E-01 -8.60207577E-02  1.92080153E-01 -6.35150193E-02
  7.31249406E-03 -9.99068759E-03  3.57866109E-02  2.06754660E-01  3.05742857E-02
 -2.84221488E-02  4.99859537E-02  2.29730210E-01 -2.97569990E-02 -1.38227251E-02
 -7.79567603E-02 -2.30477585E-02 -1.26986182E-01  3.62143066E-02 -3.90660536E-02
  1.94994704E-03 -7.77251026E-02  9.78504559E-03  1.19270560E-03  2.49580192E-02
  5.88283578E-03  1.92808155E-01 -1.24551278E-02  1.34116701E-02  1.82252682E-02
  1.29899256E-01 -9.55344410E-03  1.03385598E-02  1.30730632E-01 -1.34854186E-02
 -8.69437830E-02  3.08501341E-02  1.34951026E-01 -2.50408972E-02 -9.00020426E-02
  1.18770561E-02 -1.41237005E-02 -2.15450732E-02 -2.35074140E-02  1.01264416E-02
 -8.85839478E-02 -3.00070129E-02 -2.91953091E-02  3.47403727E-03  1.25078256E-01
  1.53967723E-02 -8.56356158E-03  2.33475008E-01 -1.58232888E-02 -1.79756118E-01
 -3.09377121E-02  2.46982644E-01 -3.78573034E-02 -1.87060510E-01  4.61436992E-02
 -4.55216783E-02 -8.10045315E-02 -3.76725051E-02  6.23765321E-02 -2.10534397E-01
 -9.96333221E-02 -5.28724112E-02  2.32144935E-02  2.34446380E-01  4.58885018E-01
 -6.23334125E-02  6.13472136E-02 -1.09188299E-01 -1.29497454E-01 -4.44363368E-02
  2.23746184E-01 -6.86436518E-02 -9.28122354E-02  1.22869434E-02  1.21372972E-02
 -1.52740571E-02  1.16287763E-02 -5.27831316E-02  3.27113383E-02 -8.68810779E-02
  2.58682666E-02 -4.20046067E-02  5.68929715E-02 -2.38375499E-02 -6.31419703E-02
  1.57868310E-01 -1.11727122E-03  2.85152864E-02 -1.27568353E-01 -1.16635543E-01
 -5.63584327E-02  1.29176109E-01 -8.51319694E-02 -7.64937232E-02  8.77155883E-03
  3.14247188E-02 -2.59939622E-02  3.49304672E-02 -5.05240915E-02  7.10685182E-02
 -9.20184001E-02  4.15438613E-02 -3.95751917E-02  7.10124523E-02 -4.33949519E-02
 -8.91224839E-02  1.39348091E-01  1.39599466E-01  3.84135041E-03 -3.56308219E-03
  3.11252962E-03  8.52114100E-03  6.55336853E-04 -7.30726851E-02  1.14296511E-02
 -2.34425755E-03 -4.06997184E-02 -4.06660954E-03  5.04983610E-03 -1.94516887E-01
  1.78124516E-02  6.81756650E-02 -1.50743121E-02 -1.87966513E-01  3.61443653E-03
  3.40053681E-02  3.56181247E-02  1.03433819E-01 -2.13324250E-02 -3.19624516E-02
  1.62459819E-01  2.98658778E-02 -2.23073747E-02  4.05797012E-02  5.34742543E-03
 -8.19358959E-02 -1.26073051E-01  6.47873570E-02 -1.01676782E-02 -1.17230387E-01
  7.79287359E-02 -6.42429387E-02 -2.87128132E-01  2.25263863E-02  1.06575600E-01
 -2.37554076E-01 -2.79355465E-01 -1.89391605E-03  4.44457186E-02  1.05534375E-01
  2.62166410E-01 -3.94808010E-02 -5.18565774E-02  2.33970291E-01  4.03745298E-01
  1.67369793E-02 -1.98570193E-02 -2.25288798E-02 -1.20698529E-02 -6.53127021E-02
 -3.01307568E-02 -5.40844114E-03  4.02289069E-03 -4.54714674E-02 -7.23085467E-02
  7.09257142E-02  7.54128289E-02 -1.81851771E-02  1.72410392E-01  2.05146683E-01
  5.12698042E-02 -6.09867059E-03  1.15165206E-01  1.70885892E-04  3.16392348E-03
  1.82723906E-02  3.41027655E-02  9.03721667E-03 -3.22690187E-02  1.63582018E-01
  1.47834204E-02 -1.34322147E-02 -1.66878558E-02  4.53825043E-03 -8.79634086E-02
  1.51413559E-02 -1.04279299E-03  1.92599479E-02 -5.35154449E-02 -1.53002619E-02
  3.49920202E-02  1.03807636E-01  4.75103766E-04  1.32769527E-01  9.74010889E-02
  8.42093172E-02  1.46344794E-02  8.85948877E-02  6.97367349E-03  1.10603809E-02
  1.56599561E-02  3.14158209E-02 -2.64317329E-02 -5.47640217E-02  1.17276786E-01
  9.80697622E-02
Mulliken Charges                           R   N=           6
 -2.90383540E-01 -3.20945380E-01 -4.25570184E-02  2.57120060E-01  1.00686731E-01
  2.96079148E-01
ONIOM Charges                              I   N=          16
           0           0           0           0           0           0
           0           0           0           0           0           0
           0           0           0           0
ONIOM Multiplicities                       I   N=          16
           1           0           0           0           0           0
           0           0           0           0           0           0
           0           0           0           0
Atom Layers                                I   N=           6
           1           1           1           1           1           1
Atom Modifiers                             I   N=           6
           0           0           0           0           0           0
Force Field                                I                0
Int Atom Modified Types                    I   N=           6
           0           0           0           0           0           0
Link Atoms                                 I   N=           6
           0           0           0           0           0           0
Atom Modified MM Charges                   R   N=           6
  0.00000000E+00  0.00000000E+00  0.00000000E+00  0.00000000E+00  0.00000000E+00
  0.00000000E+00
Link Distances                             R   N=          24
  0.00000000E+00  0.00000000E+00  0.00000000E+00  0.00000000E+00  0.00000000E+00
  0.00000000E+00  0.00000000E+00  0.00000000E+00  0.00000000E+00  0.00000000E+00
  0.00000000E+00  0.00000000E+00  0.00000000E+00  0.00000000E+00  0.00000000E+00
  0.00000000E+00  0.00000000E+00  0.00000000E+00  0.00000000E+00  0.00000000E+00
  0.00000000E+00  0.00000000E+00  0.00000000E+00  0.00000000E+00