 Entering Gaussian System, Link 0=/home/george/soft/gauss//g09/g09
 Initial command:
 /home/george/soft/gauss//g09/l1.exe "/home/george/soft/gauss/scr/Gau-16816.inp" -scrdir="/home/george/soft/gauss/scr/"
 Entering Link 1 = /home/george/soft/gauss//g09/l1.exe PID=     16818.
  
 Copyright (c) 1988,1990,1992,1993,1995,1998,2003,2009,2013,
            Gaussian, Inc.  All Rights Reserved.
  
 This is part of the Gaussian(R) 09 program.  It is based on
 the Gaussian(R) 03 system (copyright 2003, Gaussian, Inc.),
 the Gaussian(R) 98 system (copyright 1998, Gaussian, Inc.),
 the Gaussian(R) 94 system (copyright 1995, Gaussian, Inc.),
 the Gaussian 92(TM) system (copyright 1992, Gaussian, Inc.),
 the Gaussian 90(TM) system (copyright 1990, Gaussian, Inc.),
 the Gaussian 88(TM) system (copyright 1988, Gaussian, Inc.),
 the Gaussian 86(TM) system (copyright 1986, Carnegie Mellon
 University), and the Gaussian 82(TM) system (copyright 1983,
 Carnegie Mellon University). Gaussian is a federally registered
 trademark of Gaussian, Inc.
  
 This software contains proprietary and confidential information,
 including trade secrets, belonging to Gaussian, Inc.
  
 This software is provided under written license and may be
 used, copied, transmitted, or stored only in accord with that
 written license.
  
 The following legend is applicable only to US Government
 contracts under FAR:
  
                    RESTRICTED RIGHTS LEGEND
  
 Use, reproduction and disclosure by the US Government is
 subject to restrictions as set forth in subparagraphs (a)
 and (c) of the Commercial Computer Software - Restricted
 Rights clause in FAR 52.227-19.
  
 Gaussian, Inc.
 340 Quinnipiac St., Bldg. 40, Wallingford CT 06492
  
  
 ---------------------------------------------------------------
 Warning -- This program may not be used in any manner that
 competes with the business of Gaussian, Inc. or will provide
 assistance to any competitor of Gaussian, Inc.  The licensee
 of this program is prohibited from giving any competitor of
 Gaussian, Inc. access to this program.  By using this program,
 the user acknowledges that Gaussian, Inc. is engaged in the
 business of creating and licensing software in the field of
 computational chemistry and represents and warrants to the
 licensee that it is not a competitor of Gaussian, Inc. and that
 it will not use this program in any manner prohibited above.
 ---------------------------------------------------------------
  

 Cite this work as:
 Gaussian 09, Revision D.01,
 M. J. Frisch, G. W. Trucks, H. B. Schlegel, G. E. Scuseria, 
 M. A. Robb, J. R. Cheeseman, G. Scalmani, V. Barone, B. Mennucci, 
 G. A. Petersson, H. Nakatsuji, M. Caricato, X. Li, H. P. Hratchian, 
 A. F. Izmaylov, J. Bloino, G. Zheng, J. L. Sonnenberg, M. Hada, 
 M. Ehara, K. Toyota, R. Fukuda, J. Hasegawa, M. Ishida, T. Nakajima, 
 Y. Honda, O. Kitao, H. Nakai, T. Vreven, J. A. Montgomery, Jr., 
 J. E. Peralta, F. Ogliaro, M. Bearpark, J. J. Heyd, E. Brothers, 
 K. N. Kudin, V. N. Staroverov, T. Keith, R. Kobayashi, J. Normand, 
 K. Raghavachari, A. Rendell, J. C. Burant, S. S. Iyengar, J. Tomasi, 
 M. Cossi, N. Rega, J. M. Millam, M. Klene, J. E. Knox, J. B. Cross, 
 V. Bakken, C. Adamo, J. Jaramillo, R. Gomperts, R. E. Stratmann, 
 O. Yazyev, A. J. Austin, R. Cammi, C. Pomelli, J. W. Ochterski, 
 R. L. Martin, K. Morokuma, V. G. Zakrzewski, G. A. Voth, 
 P. Salvador, J. J. Dannenberg, S. Dapprich, A. D. Daniels, 
 O. Farkas, J. B. Foresman, J. V. Ortiz, J. Cioslowski, 
 and D. J. Fox, Gaussian, Inc., Wallingford CT, 2013.
 
 ******************************************
 Gaussian 09:  AM64L-G09RevD.01 24-Apr-2013
                27-Mar-2017 
 ******************************************
 %nproc=3
 Will use up to    3 processors via shared memory.
 %chk=chk
 %mem=1000mb
 -------------------------
 # B3lyp/3-21g nosym force
 -------------------------
 1/10=7,30=1,38=1/1,3;
 2/12=2,15=1,17=6,18=5,40=1/2;
 3/5=5,11=2,16=1,25=1,30=1,71=1,74=-5/1,2,3;
 4//1;
 5/5=2,38=5/2;
 6/7=2,8=2,9=2,10=2,28=1/1;
 7/29=1,30=1/1,2,3,16;
 1/10=7,30=1/3;
 99//99;


 Symbolic Z-matrix:
 Charge =  0 Multiplicity = 1
 6                    -1.02274   0.80285  -0.66615 
 6                    -0.40583   0.80285   0.66401 
 1                     0.47114   0.43628  -1.2391 
 1                    -1.48744  -0.27923  -0.90085 
 1                    -1.58719   1.06105   1.14664 
 1                    -0.30338   0.55788   1.77031 
 

 GradGradGradGradGradGradGradGradGradGradGradGradGradGradGradGradGradGrad
 Berny optimization.
 Initialization pass.
 Trust Radius=3.00D-01 FncErr=1.00D-07 GrdErr=1.00D-07
 Number of steps in this run=      2 maximum allowed number of steps=      2.
 GradGradGradGradGradGradGradGradGradGradGradGradGradGradGradGradGradGrad

                          Input orientation:                          
 ---------------------------------------------------------------------
 Center     Atomic      Atomic             Coordinates (Angstroms)
 Number     Number       Type             X           Y           Z
 ---------------------------------------------------------------------
      1          6           0       -1.022740    0.802853   -0.666150
      2          6           0       -0.405834    0.802853    0.664008
      3          1           0        0.471140    0.436282   -1.239100
      4          1           0       -1.487441   -0.279233   -0.900847
      5          1           0       -1.587189    1.061048    1.146644
      6          1           0       -0.303378    0.557878    1.770308
 ---------------------------------------------------------------------
                    Distance matrix (angstroms):
                    1          2          3          4          5
     1  C    0.000000
     2  C    1.466252   0.000000
     3  H    1.641440   2.127270   0.000000
     4  H    1.200809   2.188506   2.112443   0.000000
     5  H    1.916113   1.301998   3.212292   2.449188   0.000000
     6  H    2.552220   1.137721   3.109855   3.039380   1.513376
                    6
     6  H    0.000000
 Symmetry turned off by external request.
 Stoichiometry    C2H4
 Framework group  C1[X(C2H4)]
 Deg. of freedom    12
 Full point group                 C1      NOp   1
 Rotational constants (GHZ):     93.8404150     25.3890680     22.1511379
 Standard basis: 3-21G (6D, 7F)
    26 basis functions,    42 primitive gaussians,    26 cartesian basis functions
     8 alpha electrons        8 beta electrons
       nuclear repulsion energy        29.9699744885 Hartrees.
 NAtoms=    6 NActive=    6 NUniq=    6 SFac= 1.00D+00 NAtFMM=   60 NAOKFM=F Big=F
 Integral buffers will be    131072 words long.
 Raffenetti 2 integral format.
 Two-electron integral symmetry is turned off.
 One-electron integrals computed using PRISM.
 NBasis=    26 RedAO= T EigKep=  1.80D-02  NBF=    26
 NBsUse=    26 1.00D-06 EigRej= -1.00D+00 NBFU=    26
 ExpMin= 1.83D-01 ExpMax= 1.72D+02 ExpMxC= 1.72D+02 IAcc=1 IRadAn=         1 AccDes= 0.00D+00
 Harris functional with IExCor=  402 and IRadAn=       1 diagonalized for initial guess.
 HarFok:  IExCor=  402 AccDes= 0.00D+00 IRadAn=         1 IDoV= 1 UseB2=F ITyADJ=14
 ICtDFT=  3500011 ScaDFX=  1.000000  1.000000  1.000000  1.000000
 FoFCou: FMM=F IPFlag=           0 FMFlag=      100000 FMFlg1=           0
         NFxFlg=           0 DoJE=T BraDBF=F KetDBF=T FulRan=T
         wScrn=  0.000000 ICntrl=     500 IOpCl=  0 I1Cent=   200000004 NGrid=           0
         NMat0=    1 NMatS0=      1 NMatT0=    0 NMatD0=    1 NMtDS0=    0 NMtDT0=    0
 Symmetry not used in FoFCou.
 Keep R1 ints in memory in canonical form, NReq=942464.
 Requested convergence on RMS density matrix=1.00D-08 within 128 cycles.
 Requested convergence on MAX density matrix=1.00D-06.
 Requested convergence on             energy=1.00D-06.
 No special actions if energy rises.
 Integral accuracy reduced to 1.0D-05 until final iterations.
 Initial convergence to 1.0D-05 achieved.  Increase integral accuracy.
 SCF Done:  E(RB3LYP) =  -77.8652322597     A.U. after   15 cycles
            NFock= 15  Conv=0.85D-08     -V/T= 2.0168

 **********************************************************************

            Population analysis using the SCF density.

 **********************************************************************

 Alpha  occ. eigenvalues --  -10.20411 -10.19808  -0.76987  -0.59642  -0.44434
 Alpha  occ. eigenvalues --   -0.38343  -0.28959  -0.21361
 Alpha virt. eigenvalues --   -0.10964   0.02057   0.04811   0.08928   0.13292
 Alpha virt. eigenvalues --    0.31871   0.69908   0.71395   0.73683   0.80483
 Alpha virt. eigenvalues --    0.85355   0.89925   0.91810   0.94112   1.01267
 Alpha virt. eigenvalues --    1.06104   1.43176   1.69677
          Condensed to atoms (all electrons):
               1          2          3          4          5          6
     1  C    5.449582   0.377932   0.253176   0.348420  -0.121999  -0.016727
     2  C    0.377932   5.541220  -0.080500  -0.048727   0.189131   0.341888
     3  H    0.253176  -0.080500   0.886820  -0.026933   0.009490   0.000503
     4  H    0.348420  -0.048727  -0.026933   0.477477  -0.009110   0.001753
     5  H   -0.121999   0.189131   0.009490  -0.009110   0.868447  -0.036646
     6  H   -0.016727   0.341888   0.000503   0.001753  -0.036646   0.413149
 Mulliken charges:
               1
     1  C   -0.290384
     2  C   -0.320945
     3  H   -0.042557
     4  H    0.257120
     5  H    0.100687
     6  H    0.296079
 Sum of Mulliken charges =   0.00000
 Mulliken charges with hydrogens summed into heavy atoms:
               1
     1  C   -0.075820
     2  C    0.075820
 Electronic spatial extent (au):  <R**2>=            154.0277
 Charge=              0.0000 electrons
 Dipole moment (field-independent basis, Debye):
    X=             -0.7872    Y=             -1.2481    Z=              2.2949  Tot=              2.7284
 Quadrupole moment (field-independent basis, Debye-Ang):
   XX=            -14.7488   YY=            -16.3490   ZZ=            -13.4682
   XY=              1.1401   XZ=             -0.4361   YZ=              2.4787
 Traceless Quadrupole moment (field-independent basis, Debye-Ang):
   XX=              0.1065   YY=             -1.4936   ZZ=              1.3871
   XY=              1.1401   XZ=             -0.4361   YZ=              2.4787
 Octapole moment (field-independent basis, Debye-Ang**2):
  XXX=             31.5202  YYY=            -35.6039  ZZZ=              9.4673  XYY=             11.2077
  XXY=            -13.5001  XXZ=             -0.7683  XZZ=              9.3013  YZZ=            -11.9847
  YYZ=              1.6740  XYZ=             -2.0441
 Hexadecapole moment (field-independent basis, Debye-Ang**3):
 XXXX=            -84.5713 YYYY=            -73.7322 ZZZZ=            -71.4828 XXXY=             27.7304
 XXXZ=             -0.5379 YYYX=             25.7044 YYYZ=             -1.4997 ZZZX=             -4.2876
 ZZZY=              2.5203 XXYY=            -27.2370 XXZZ=            -27.8395 YYZZ=            -26.6311
 XXYZ=              0.8629 YYXZ=             -1.7763 ZZXY=              9.0952
 N-N= 2.996997448846D+01 E-N=-2.390989321184D+02  KE= 7.658158161927D+01
 Calling FoFJK, ICntrl=      2127 FMM=F ISym2X=0 I1Cent= 0 IOpClX= 0 NMat=1 NMatS=1 NMatT=0.
 -------------------------------------------------------------------
 Center     Atomic                   Forces (Hartrees/Bohr)
 Number     Number              X              Y              Z
 -------------------------------------------------------------------
      1        6           0.169948067   -0.084461258    0.017959232
      2        6          -0.152994216    0.008593794    0.006792115
      3        1          -0.068591964    0.017011479   -0.004457262
      4        1          -0.007362318    0.058817817    0.009133320
      5        1           0.014731293   -0.017649944    0.000023846
      6        1           0.044269139    0.017688111   -0.029451250
 -------------------------------------------------------------------
 Cartesian Forces:  Max     0.169948067 RMS     0.063309472

 GradGradGradGradGradGradGradGradGradGradGradGradGradGradGradGradGradGrad
 Berny optimization.
 Search for a local minimum.
 Step number   1 out of a maximum of    2
 All quantities printed in internal units (Hartrees-Bohrs-Radians)
 Second derivative matrix not updated -- first step.
 The second derivative matrix:
                          X1        Y1        Z1        X2        Y2
           X1           0.14419
           Y1           0.07775   0.25868
           Z1           0.13975   0.01130   0.34711
           X2          -0.13200  -0.01553  -0.09980   0.36570
           Y2           0.00506  -0.07373   0.02293  -0.00193   0.15345
           Z2          -0.13924   0.00349  -0.30052   0.07773  -0.04817
           X3           0.00000   0.00000   0.00000   0.00000   0.00000
           Y3           0.00000   0.00000   0.00000   0.00000   0.00000
           Z3           0.00000   0.00000   0.00000   0.00000   0.00000
           X4          -0.04500  -0.07009  -0.02473   0.00375  -0.01815
           Y4          -0.08246  -0.21274  -0.03439   0.00025   0.01145
           Z4          -0.01789  -0.01485  -0.03853  -0.00858  -0.01686
           X5           0.00781  -0.00059  -0.00362  -0.15875   0.03086
           Y5          -0.00087   0.00509   0.00040   0.02259  -0.02405
           Z5           0.01958  -0.00418  -0.00908   0.05218  -0.01057
           X6           0.02500   0.00846  -0.01160  -0.07871  -0.01584
           Y6           0.00052   0.02270  -0.00024  -0.00538  -0.06712
           Z6          -0.00220   0.00424   0.00102  -0.02153   0.05266
                          Z2        X3        Y3        Z3        X4
           Z2           0.64994
           X3           0.00000   1.00000
           Y3           0.00000   0.00000   1.00000
           Z3           0.00000   0.00000   0.00000   1.00000
           X4          -0.00174   0.00000   0.00000   0.00000   0.04381
           Y4          -0.00012   0.00000   0.00000   0.00000   0.08137
           Z4           0.00398   0.00000   0.00000   0.00000   0.02529
           X5           0.04756   0.00000   0.00000   0.00000   0.00036
           Y5          -0.00668   0.00000   0.00000   0.00000   0.00197
           Z5          -0.06502   0.00000   0.00000   0.00000  -0.00017
           X6           0.01569   0.00000   0.00000   0.00000  -0.00292
           Y6           0.05147   0.00000   0.00000   0.00000   0.00490
           Z6          -0.28838   0.00000   0.00000   0.00000   0.00136
                          Y4        Z4        X5        Y5        Z5
           Y4           0.20355
           Z4           0.03490   0.03510
           X5          -0.00012  -0.00017   0.15906
           Y5          -0.00065  -0.00091  -0.03386   0.01625
           Z5           0.00006   0.00008  -0.04538   0.00739   0.06998
           X6           0.00096   0.00136  -0.00849   0.01018  -0.02621
           Y6          -0.00161  -0.00227   0.00372   0.00336   0.00730
           Z6          -0.00045  -0.00063   0.00161  -0.00020   0.00404
                          X6        Y6        Z6
           X6           0.06511
           Y6          -0.00376   0.04267
           Z6           0.02077  -0.05626   0.28395
 ITU=  0
     Eigenvalues ---    0.00786   0.03762   0.08463   0.10732   0.16975
     Eigenvalues ---    0.29386   0.40113   0.46103   0.48792   0.76313
     Eigenvalues ---    0.93592   1.00936
 Quadratic step=6.260D+00 exceeds max=3.000D-01 adjusted using Lamda=-4.915D-01.
 Angle between NR and scaled steps=  61.67 degrees.
 Angle between quadratic step and forces=  25.53 degrees.
 Linear search not attempted -- first point.
 TrRot=  0.006283 -0.010908  0.026396 -0.418393 -0.015151  0.419286
 Variable       Old X    -DE/DX   Delta X   Delta X   Delta X     New X
                                 (Linear)    (Quad)   (Total)
    X1       -1.93270   0.16995   0.00000   0.14856   0.17119  -1.76151
    Y1        1.51717  -0.08446   0.00000  -0.06847  -0.08882   1.42836
    Z1       -1.25884   0.01796   0.00000   0.00157  -0.00552  -1.26436
    X2       -0.76692  -0.15299   0.00000  -0.13973  -0.15207  -0.91899
    Y2        1.51717   0.00859   0.00000   0.02413   0.02008   1.53725
    Z2        1.25479   0.00679   0.00000   0.00177   0.00597   1.26076
    X3        0.89032  -0.06859   0.00000  -0.07026  -0.03203   0.85829
    Y3        0.82445   0.01701   0.00000   0.02956   0.00484   0.82929
    Z3       -2.34156  -0.00446   0.00000  -0.02367   0.00908  -2.33248
    X4       -2.81086  -0.00736   0.00000  -0.06903  -0.03890  -2.84976
    Y4       -0.52767   0.05882   0.00000   0.10276   0.07885  -0.44883
    Z4       -1.70235   0.00913   0.00000   0.02572   0.01508  -1.68727
    X5       -2.99935   0.01473   0.00000   0.00604  -0.01974  -3.01909
    Y5        2.00509  -0.01765   0.00000  -0.04585  -0.04595   1.95914
    Z5        2.16684   0.00002   0.00000   0.04978   0.02241   2.18925
    X6       -0.57330   0.04427   0.00000   0.11163   0.07156  -0.50174
    Y6        1.05424   0.01769   0.00000   0.02213   0.03100   1.08523
    Z6        3.34540  -0.02945   0.00000  -0.06001  -0.04702   3.29837
         Item               Value     Threshold  Converged?
 Maximum Force            0.169948     0.000450     NO 
 RMS     Force            0.063309     0.000300     NO 
 Maximum Displacement     0.171187     0.001800     NO 
 RMS     Displacement     0.067154     0.001200     NO 
 Predicted change in Energy=-6.118729D-02
 GradGradGradGradGradGradGradGradGradGradGradGradGradGradGradGradGradGrad

 1\1\GINC-GEORGE-DELL\Force\RB3LYP\3-21G\C2H4\GEORGE\27-Mar-2017\0\\# B
 3lyp/3-21g nosym force\\\0,1\C,-1.0227404575,0.8028534893,-0.666150179
 3\C,-0.4058340944,0.8028534893,0.6640080114\H,0.4711395806,0.436282185
 1,-1.2391002634\H,-1.4874411009,-0.2792333416,-0.9008469599\H,-1.58718
 85539,1.0610476812,1.1466436187\H,-0.303377573,0.5578780908,1.77030805
 66\\Version=AM64L-G09RevD.01\HF=-77.8652323\RMSD=8.523e-09\RMSF=6.331e
 -02\Dipole=-0.3097199,-0.4910582,0.902867\Quadrupole=0.0791948,-1.1104
 774,1.0312826,0.847621,-0.3242646,1.8428744\PG=C01 [X(C2H4)]\\@


 TO DRY ONE'S EYES AND LAUGH AT A FALL
 AND BAFFLED, GET UP AND BEGIN AGAIN.
           R. BROWNING
 Job cpu time:       0 days  0 hours  0 minutes  5.3 seconds.
 File lengths (MBytes):  RWF=      5 Int=      0 D2E=      0 Chk=      1 Scr=      1
 Normal termination of Gaussian 09 at Mon Mar 27 18:11:20 2017.
