 Entering Gaussian System, Link 0=/home/george/soft/gauss/g09/g09
 Initial command:
 /home/george/soft/gauss/g09/l1.exe "/home/george/soft/gauss/scr/Gau-12222.inp" -scrdir="/home/george/soft/gauss/scr/"
 Entering Link 1 = /home/george/soft/gauss/g09/l1.exe PID=     12224.
  
 Copyright (c) 1988,1990,1992,1993,1995,1998,2003,2009,2013,
            Gaussian, Inc.  All Rights Reserved.
  
 This is part of the Gaussian(R) 09 program.  It is based on
 the Gaussian(R) 03 system (copyright 2003, Gaussian, Inc.),
 the Gaussian(R) 98 system (copyright 1998, Gaussian, Inc.),
 the Gaussian(R) 94 system (copyright 1995, Gaussian, Inc.),
 the Gaussian 92(TM) system (copyright 1992, Gaussian, Inc.),
 the Gaussian 90(TM) system (copyright 1990, Gaussian, Inc.),
 the Gaussian 88(TM) system (copyright 1988, Gaussian, Inc.),
 the Gaussian 86(TM) system (copyright 1986, Carnegie Mellon
 University), and the Gaussian 82(TM) system (copyright 1983,
 Carnegie Mellon University). Gaussian is a federally registered
 trademark of Gaussian, Inc.
  
 This software contains proprietary and confidential information,
 including trade secrets, belonging to Gaussian, Inc.
  
 This software is provided under written license and may be
 used, copied, transmitted, or stored only in accord with that
 written license.
  
 The following legend is applicable only to US Government
 contracts under FAR:
  
                    RESTRICTED RIGHTS LEGEND
  
 Use, reproduction and disclosure by the US Government is
 subject to restrictions as set forth in subparagraphs (a)
 and (c) of the Commercial Computer Software - Restricted
 Rights clause in FAR 52.227-19.
  
 Gaussian, Inc.
 340 Quinnipiac St., Bldg. 40, Wallingford CT 06492
  
  
 ---------------------------------------------------------------
 Warning -- This program may not be used in any manner that
 competes with the business of Gaussian, Inc. or will provide
 assistance to any competitor of Gaussian, Inc.  The licensee
 of this program is prohibited from giving any competitor of
 Gaussian, Inc. access to this program.  By using this program,
 the user acknowledges that Gaussian, Inc. is engaged in the
 business of creating and licensing software in the field of
 computational chemistry and represents and warrants to the
 licensee that it is not a competitor of Gaussian, Inc. and that
 it will not use this program in any manner prohibited above.
 ---------------------------------------------------------------
  

 Cite this work as:
 Gaussian 09, Revision D.01,
 M. J. Frisch, G. W. Trucks, H. B. Schlegel, G. E. Scuseria, 
 M. A. Robb, J. R. Cheeseman, G. Scalmani, V. Barone, B. Mennucci, 
 G. A. Petersson, H. Nakatsuji, M. Caricato, X. Li, H. P. Hratchian, 
 A. F. Izmaylov, J. Bloino, G. Zheng, J. L. Sonnenberg, M. Hada, 
 M. Ehara, K. Toyota, R. Fukuda, J. Hasegawa, M. Ishida, T. Nakajima, 
 Y. Honda, O. Kitao, H. Nakai, T. Vreven, J. A. Montgomery, Jr., 
 J. E. Peralta, F. Ogliaro, M. Bearpark, J. J. Heyd, E. Brothers, 
 K. N. Kudin, V. N. Staroverov, T. Keith, R. Kobayashi, J. Normand, 
 K. Raghavachari, A. Rendell, J. C. Burant, S. S. Iyengar, J. Tomasi, 
 M. Cossi, N. Rega, J. M. Millam, M. Klene, J. E. Knox, J. B. Cross, 
 V. Bakken, C. Adamo, J. Jaramillo, R. Gomperts, R. E. Stratmann, 
 O. Yazyev, A. J. Austin, R. Cammi, C. Pomelli, J. W. Ochterski, 
 R. L. Martin, K. Morokuma, V. G. Zakrzewski, G. A. Voth, 
 P. Salvador, J. J. Dannenberg, S. Dapprich, A. D. Daniels, 
 O. Farkas, J. B. Foresman, J. V. Ortiz, J. Cioslowski, 
 and D. J. Fox, Gaussian, Inc., Wallingford CT, 2013.
 
 ******************************************
 Gaussian 09:  AM64L-G09RevD.01 24-Apr-2013
                16-Mar-2017 
 ******************************************
 %nproc=5
 Will use up to    5 processors via shared memory.
 %chk=chk
 %mem=1000mb
 ------------------------
 # B3lyp/3-21g nosym freq
 ------------------------
 1/10=4,30=1,38=1/1,3;
 2/12=2,15=1,17=6,18=5,40=1/2;
 3/5=5,11=2,16=1,25=1,30=1,71=2,74=-5,140=1/1,2,3;
 4//1;
 5/5=2,38=5,98=1/2;
 8/6=4,10=90,11=11/1;
 11/6=1,8=1,9=11,15=111,16=1,31=1/1,2,10;
 10/6=1,31=1/2;
 6/7=2,8=2,9=2,10=2,18=1,28=1/1;
 7/8=1,10=1,25=1,30=1/1,2,3,16;
 1/10=4,30=1/3;
 99//99;
 -------
 hessian
 -------
 Symbolic Z-matrix:
 Charge =  0 Multiplicity = 1
 8                     0.        0.        0. 
 1                     1.04218   0.        0. 
 1                     0.3104    1.00456   0. 
 

 GradGradGradGradGradGradGradGradGradGradGradGradGradGradGradGradGradGrad
 Berny optimization.
 Initialization pass.
 Trust Radius=3.00D-01 FncErr=1.00D-07 GrdErr=1.00D-07
 Number of steps in this run=      2 maximum allowed number of steps=      2.
 GradGradGradGradGradGradGradGradGradGradGradGradGradGradGradGradGradGrad

                          Input orientation:                          
 ---------------------------------------------------------------------
 Center     Atomic      Atomic             Coordinates (Angstroms)
 Number     Number       Type             X           Y           Z
 ---------------------------------------------------------------------
      1          8           0        0.000000    0.000000    0.000000
      2          1           0        1.042180    0.000000    0.000000
      3          1           0        0.310400    1.004560    0.000000
 ---------------------------------------------------------------------
                    Distance matrix (angstroms):
                    1          2          3
     1  O    0.000000
     2  H    1.042180   0.000000
     3  H    1.051422   1.242837   0.000000
 Symmetry turned off by external request.
 Stoichiometry    H2O
 Framework group  CS[SG(H2O)]
 Deg. of freedom     3
 Full point group                 CS      NOp   2
 Rotational constants (GHZ):    649.4260907    397.7796352    246.6835953
 Standard basis: 3-21G (6D, 7F)
    13 basis functions,    21 primitive gaussians,    13 cartesian basis functions
     5 alpha electrons        5 beta electrons
       nuclear repulsion energy         8.5142331386 Hartrees.
 NAtoms=    3 NActive=    3 NUniq=    3 SFac= 1.00D+00 NAtFMM=   60 NAOKFM=F Big=F
 Integral buffers will be    131072 words long.
 Raffenetti 2 integral format.
 Two-electron integral symmetry is turned off.
 One-electron integrals computed using PRISM.
 NBasis=    13 RedAO= T EigKep=  1.25D-01  NBF=    13
 NBsUse=    13 1.00D-06 EigRej= -1.00D+00 NBFU=    13
 ExpMin= 1.83D-01 ExpMax= 3.22D+02 ExpMxC= 3.22D+02 IAcc=1 IRadAn=         1 AccDes= 0.00D+00
 Harris functional with IExCor=  402 and IRadAn=       1 diagonalized for initial guess.
 HarFok:  IExCor=  402 AccDes= 0.00D+00 IRadAn=         1 IDoV= 1 UseB2=F ITyADJ=14
 ICtDFT=  3500011 ScaDFX=  1.000000  1.000000  1.000000  1.000000
 FoFCou: FMM=F IPFlag=           0 FMFlag=      100000 FMFlg1=           0
         NFxFlg=           0 DoJE=T BraDBF=F KetDBF=T FulRan=T
         wScrn=  0.000000 ICntrl=     500 IOpCl=  0 I1Cent=   200000004 NGrid=           0
         NMat0=    1 NMatS0=      1 NMatT0=    0 NMatD0=    1 NMtDS0=    0 NMtDT0=    0
 Symmetry not used in FoFCou.
 Keep R1 ints in memory in canonical form, NReq=883173.
 Requested convergence on RMS density matrix=1.00D-08 within 128 cycles.
 Requested convergence on MAX density matrix=1.00D-06.
 Requested convergence on             energy=1.00D-06.
 No special actions if energy rises.
 Integral accuracy reduced to 1.0D-05 until final iterations.
 Initial convergence to 1.0D-05 achieved.  Increase integral accuracy.
 SCF Done:  E(RB3LYP) =  -75.9442188118     A.U. after    9 cycles
            NFock=  9  Conv=0.58D-08     -V/T= 2.0076
 DoSCS=F DFT=T ScalE2(SS,OS)=  1.000000  1.000000
 Range of M.O.s used for correlation:     1    13
 NBasis=    13 NAE=     5 NBE=     5 NFC=     0 NFV=     0
 NROrb=     13 NOA=     5 NOB=     5 NVA=     8 NVB=     8
 Symmetrizing basis deriv contribution to polar:
 IMax=3 JMax=2 DiffMx= 0.00D+00
 G2DrvN: will do     4 centers at a time, making    1 passes.
 Calling FoFCou, ICntrl=  3107 FMM=F I1Cent=   0 AccDes= 0.00D+00.
 End of G2Drv F.D. properties file   721 does not exist.
 End of G2Drv F.D. properties file   722 does not exist.
 End of G2Drv F.D. properties file   788 does not exist.
          IDoAtm=111
          Differentiating once with respect to electric field.
                with respect to dipole field.
          Differentiating once with respect to nuclear coordinates.
 Keep R1 ints in memory in canonical form, NReq=862322.
          There are    12 degrees of freedom in the 1st order CPHF.  IDoFFX=6 NUNeed=     3.
      9 vectors produced by pass  0 Test12= 3.33D-16 8.33D-09 XBig12= 4.89D+00 1.47D+00.
 AX will form     9 AO Fock derivatives at one time.
      9 vectors produced by pass  1 Test12= 3.33D-16 8.33D-09 XBig12= 5.98D-01 3.98D-01.
      9 vectors produced by pass  2 Test12= 3.33D-16 8.33D-09 XBig12= 3.11D-03 2.45D-02.
      8 vectors produced by pass  3 Test12= 3.33D-16 8.33D-09 XBig12= 1.22D-06 7.75D-04.
      3 vectors produced by pass  4 Test12= 3.33D-16 8.33D-09 XBig12= 5.55D-11 4.85D-06.
      1 vectors produced by pass  5 Test12= 3.33D-16 8.33D-09 XBig12= 7.71D-15 5.21D-08.
 InvSVY:  IOpt=1 It=  1 EMax= 2.22D-16
 Solved reduced A of dimension    39 with     9 vectors.
 Isotropic polarizability for W=    0.000000        4.97 Bohr**3.
 End of Minotr F.D. properties file   721 does not exist.
 End of Minotr F.D. properties file   722 does not exist.
 End of Minotr F.D. properties file   788 does not exist.

 **********************************************************************

            Population analysis using the SCF density.

 **********************************************************************

 Alpha  occ. eigenvalues --  -19.03317  -0.99171  -0.42092  -0.39939  -0.26969
 Alpha virt. eigenvalues --    0.05368   0.14055   0.84135   0.96534   1.42506
 Alpha virt. eigenvalues --    1.58250   1.61257   2.69303
          Condensed to atoms (all electrons):
               1          2          3
     1  O    8.136003   0.206932   0.207101
     2  H    0.206932   0.604907  -0.089258
     3  H    0.207101  -0.089258   0.609540
 Mulliken charges:
               1
     1  O   -0.550036
     2  H    0.277418
     3  H    0.272617
 Sum of Mulliken charges =   0.00000
 Mulliken charges with hydrogens summed into heavy atoms:
               1
     1  O    0.000000
 APT charges:
               1
     1  O   -0.234286
     2  H    0.118861
     3  H    0.115425
 Sum of APT charges =   0.00000
 APT charges with hydrogens summed into heavy atoms:
               1
     1  O    0.000000
 Electronic spatial extent (au):  <R**2>=             20.4249
 Charge=              0.0000 electrons
 Dipole moment (field-independent basis, Debye):
    X=              2.0024    Y=              1.4662    Z=              0.0000  Tot=              2.4818
 Quadrupole moment (field-independent basis, Debye-Ang):
   XX=             -4.7884   YY=             -5.1881   ZZ=             -6.9688
   XY=              0.6627   XZ=              0.0000   YZ=              0.0000
 Traceless Quadrupole moment (field-independent basis, Debye-Ang):
   XX=              0.8600   YY=              0.4604   ZZ=             -1.3204
   XY=              0.6627   XZ=              0.0000   YZ=              0.0000
 Octapole moment (field-independent basis, Debye-Ang**2):
  XXX=             -0.9082  YYY=             -0.6810  ZZZ=              0.0000  XYY=             -0.3005
  XXY=             -0.2476  XXZ=              0.0000  XZZ=             -0.7893  YZZ=             -0.5960
  YYZ=              0.0000  XYZ=              0.0000
 Hexadecapole moment (field-independent basis, Debye-Ang**3):
 XXXX=             -6.4896 YYYY=             -6.5775 ZZZZ=             -4.3943 XXXY=             -0.1605
 XXXZ=              0.0000 YYYX=              0.1521 YYYZ=              0.0000 ZZZX=              0.0000
 ZZZY=              0.0000 XXYY=             -2.4736 XXZZ=             -2.1043 YYZZ=             -2.0566
 XXYZ=              0.0000 YYXZ=              0.0000 ZZXY=             -0.1147
 N-N= 8.514233138643D+00 E-N=-1.966712326035D+02  KE= 7.536990533319D+01
  Exact polarizability:   7.092   0.302   7.059   0.000   0.000   0.746
 Approx polarizability:  10.256   2.091   9.252   0.000   0.000   0.711
 Calling FoFJK, ICntrl=    100127 FMM=F ISym2X=0 I1Cent= 0 IOpClX= 0 NMat=1 NMatS=1 NMatT=0.
 Full mass-weighted force constant matrix:
 Low frequencies --- -936.3028   -0.0020   -0.0018   -0.0015  204.1998  849.9840
 Low frequencies --- 1551.4459 2895.2986 3159.7358
 Diagonal vibrational polarizability:
        0.1365486       0.1806516       0.0000000
 Harmonic frequencies (cm**-1), IR intensities (KM/Mole), Raman scattering
 activities (A**4/AMU), depolarization ratios for plane and unpolarized
 incident light, reduced masses (AMU), force constants (mDyne/A),
 and normal coordinates:
                      1                      2                      3
                      A                      A                      A
 Frequencies --   1551.3668              2882.9482              3159.5551
 Red. masses --      1.0817                 1.0493                 1.0464
 Frc consts  --      1.5339                 5.1384                 6.1547
 IR Inten    --      2.5633                66.9999                26.5606
  Atom  AN      X      Y      Z        X      Y      Z        X      Y      Z
     1   8     0.06   0.04   0.00    -0.03   0.05   0.00    -0.04  -0.02   0.00
     2   1    -0.18  -0.68   0.00     0.60   0.04   0.00     0.76  -0.23   0.00
     3   1    -0.71   0.01   0.00    -0.19  -0.77   0.00    -0.05   0.60   0.00

 -------------------
 - Thermochemistry -
 -------------------
 Temperature   298.150 Kelvin.  Pressure   1.00000 Atm.
 Atom     1 has atomic number  8 and mass  15.99491
 Atom     2 has atomic number  1 and mass   1.00783
 Atom     3 has atomic number  1 and mass   1.00783
 Molecular mass:    18.01056 amu.
 Principal axes and moments of inertia in atomic units:
                           1         2         3
     Eigenvalues --     2.77898   4.53704   7.31602
           X            0.79401  -0.60791   0.00000
           Y            0.60791   0.79401   0.00000
           Z            0.00000   0.00000   1.00000
 This molecule is an asymmetric top.
 Rotational symmetry number  1.
 Rotational temperatures (Kelvin)     31.16750    19.09039    11.83893
 Rotational constants (GHZ):         649.42609   397.77964   246.68360
 Zero-point vibrational energy      45421.4 (Joules/Mol)
                                   10.85598 (Kcal/Mol)
 Vibrational temperatures:   2232.07  4147.91  4545.89
          (Kelvin)
 
 Zero-point correction=                           0.017300 (Hartree/Particle)
 Thermal correction to Energy=                    0.020137
 Thermal correction to Enthalpy=                  0.021081
 Thermal correction to Gibbs Free Energy=        -0.001211
 Sum of electronic and zero-point Energies=            -75.926919
 Sum of electronic and thermal Energies=               -75.924082
 Sum of electronic and thermal Enthalpies=             -75.923138
 Sum of electronic and thermal Free Energies=          -75.945429
 
                     E (Thermal)             CV                S
                      KCal/Mol        Cal/Mol-Kelvin    Cal/Mol-Kelvin
 Total                   12.636              6.025             46.916
 Electronic               0.000              0.000              0.000
 Translational            0.889              2.981             34.608
 Rotational               0.889              2.981             12.298
 Vibrational             10.858              0.063              0.009
                       Q            Log10(Q)             Ln(Q)
 Total Bot       0.360431D+01          0.556822          1.282130
 Total V=0       0.326816D+09          8.514303         19.604907
 Vib (Bot)       0.110348D-07         -7.957237        -18.322215
 Vib (V=0)       0.100056D+01          0.000244          0.000562
 Electronic      0.100000D+01          0.000000          0.000000
 Translational   0.300432D+07          6.477746         14.915562
 Rotational      0.108721D+03          2.036313          4.688783
 -------------------------------------------------------------------
 Center     Atomic                   Forces (Hartrees/Bohr)
 Number     Number              X              Y              Z
 -------------------------------------------------------------------
      1        8           0.060509780    0.049011488    0.000000000
      2        1          -0.005404839   -0.054862856    0.000000000
      3        1          -0.055104941    0.005851368    0.000000000
 -------------------------------------------------------------------
 Cartesian Forces:  Max     0.060509780 RMS     0.036777858

 GradGradGradGradGradGradGradGradGradGradGradGradGradGradGradGradGradGrad
 Berny optimization.
 Search for a local minimum.
 Step number   1 out of a maximum of    2
 All quantities printed in internal units (Hartrees-Bohrs-Radians)
 Second derivative matrix not updated -- analytic derivatives used.
 The second derivative matrix:
                          X1        Y1        Z1        X2        Y2
           X1           0.32647
           Y1           0.03084   0.28558
           Z1           0.00000   0.00000   0.04887
           X2          -0.30132   0.03500   0.00000   0.32607
           Y2           0.01391  -0.01302   0.00000  -0.05875   0.05990
           Z2           0.00000   0.00000  -0.02296   0.00000   0.00000
           X3          -0.02515  -0.06583   0.00000  -0.02475   0.04485
           Y3          -0.04474  -0.27257   0.00000   0.02376  -0.04688
           Z3           0.00000   0.00000  -0.02591   0.00000   0.00000
                          Z2        X3        Y3        Z3
           Z2          -0.00595
           X3           0.00000   0.04990
           Y3           0.00000   0.02098   0.31945
           Z3           0.02892   0.00000   0.00000  -0.00301
 ITU=  0
     Eigenvalues ---    0.13244   0.45186   0.54705
 Quadratic step=7.173D-01 exceeds max=3.000D-01 adjusted using Lamda=-1.865D-01.
 Angle between NR and scaled steps=   3.99 degrees.
 Angle between quadratic step and forces=  26.32 degrees.
 Linear search not attempted -- first point.
 TrRot=  0.045184  0.037335  0.000000 -0.000623  0.000000 -0.000623
 Variable       Old X    -DE/DX   Delta X   Delta X   Delta X     New X
                                 (Linear)    (Quad)   (Total)
    X1        0.00000   0.06051   0.00000   0.07536   0.12061   0.12061
    Y1        0.00000   0.04901   0.00000   0.05961   0.09685   0.09685
    Z1        0.00000   0.00000   0.00000   0.00000   0.00000   0.00000
    X2        1.96943  -0.00540   0.00000  -0.01467   0.03026   1.99970
    Y2        0.00000  -0.05486   0.00000  -0.20094  -0.16604  -0.16604
    Z2        0.00000   0.00000   0.00000   0.00000   0.00000   0.00000
    X3        0.58657  -0.05510   0.00000  -0.19847  -0.15088   0.43569
    Y3        1.89834   0.00585   0.00000   0.03234   0.06919   1.96753
    Z3        0.00000   0.00000   0.00000   0.00000   0.00000   0.00000
         Item               Value     Threshold  Converged?
 Maximum Force            0.060510     0.000450     NO 
 RMS     Force            0.036778     0.000300     NO 
 Maximum Displacement     0.166039     0.001800     NO 
 RMS     Displacement     0.094259     0.001200     NO 
 Predicted change in Energy=-2.327347D-02
 GradGradGradGradGradGradGradGradGradGradGradGradGradGradGradGradGradGrad

 1\1\GINC-GEORGE-MAIN\Freq\RB3LYP\3-21G\H2O1\GEORGE\16-Mar-2017\0\\# B3
 lyp/3-21g nosym freq\\hessian\\0,1\O,0.,0.,0.\H,1.04218,0.,0.\H,0.3104
 ,1.00456,0.\\Version=AM64L-G09RevD.01\HF=-75.9442188\RMSD=5.775e-09\RM
 SF=3.678e-02\ZeroPoint=0.0173001\Thermal=0.0201366\Dipole=0.7878012,0.
 5768495,0.\DipoleDeriv=-0.010949,0.1144801,0.,0.1125382,-0.0785341,0.,
 0.,0.,-0.6133764,-0.1937462,0.1008275,0.,-0.0884122,0.2408196,0.,0.,0.
 ,0.3095104,0.2046952,-0.2153076,0.,-0.024126,-0.1622855,0.,0.,0.,0.303
 866\Polar=7.0920882,0.3023202,7.0591363,0.,0.,0.7458946\PG=CS [SG(H2O1
 )]\NImag=0\\0.32647353,0.03083654,0.28558405,0.,0.,0.04887077,-0.30132
 195,0.03499556,0.,0.32607302,0.01390566,-0.01301739,0.,-0.05875333,0.0
 5990023,0.,0.,-0.02296089,0.,0.,-0.00595452,-0.02515157,-0.06583210,0.
 ,-0.02475106,0.04484767,0.,0.04990264,-0.04474220,-0.27256666,0.,0.023
 75777,-0.04688284,0.,0.02098443,0.31944950,0.,0.,-0.02590988,0.,0.,0.0
 2891541,0.,0.,-0.00300553\\-0.06050978,-0.04901149,0.,0.00540484,0.054
 86286,0.,0.05510494,-0.00585137,0.\\\@


 TO DETECT ERRORS, THE PROGRAMMER MUST HAVE A CONNIVING MIND,
 ONE THAT DELIGHTS IN UNCOVERING FLAWS WHERE BEAUTY AND
 PERFECTION WERE ONCE THOUGHT TO LIE.

             -- THE PSYCHOLOGY OF COMPUTER PROGRAMMING
                GERALD M. WEINBERG
 Job cpu time:       0 days  0 hours  0 minutes 22.1 seconds.
 File lengths (MBytes):  RWF=      5 Int=      0 D2E=      0 Chk=      1 Scr=      1
 Normal termination of Gaussian 09 at Thu Mar 16 23:00:04 2017.
