 Entering Gaussian System, Link 0=/home/george/soft/gauss/g09/g09
 Initial command:
 /home/george/soft/gauss/g09/l1.exe "/home/george/soft/gauss/scr/Gau-13968.inp" -scrdir="/home/george/soft/gauss/scr/"
 Entering Link 1 = /home/george/soft/gauss/g09/l1.exe PID=     13970.
  
 Copyright (c) 1988,1990,1992,1993,1995,1998,2003,2009,2013,
            Gaussian, Inc.  All Rights Reserved.
  
 This is part of the Gaussian(R) 09 program.  It is based on
 the Gaussian(R) 03 system (copyright 2003, Gaussian, Inc.),
 the Gaussian(R) 98 system (copyright 1998, Gaussian, Inc.),
 the Gaussian(R) 94 system (copyright 1995, Gaussian, Inc.),
 the Gaussian 92(TM) system (copyright 1992, Gaussian, Inc.),
 the Gaussian 90(TM) system (copyright 1990, Gaussian, Inc.),
 the Gaussian 88(TM) system (copyright 1988, Gaussian, Inc.),
 the Gaussian 86(TM) system (copyright 1986, Carnegie Mellon
 University), and the Gaussian 82(TM) system (copyright 1983,
 Carnegie Mellon University). Gaussian is a federally registered
 trademark of Gaussian, Inc.
  
 This software contains proprietary and confidential information,
 including trade secrets, belonging to Gaussian, Inc.
  
 This software is provided under written license and may be
 used, copied, transmitted, or stored only in accord with that
 written license.
  
 The following legend is applicable only to US Government
 contracts under FAR:
  
                    RESTRICTED RIGHTS LEGEND
  
 Use, reproduction and disclosure by the US Government is
 subject to restrictions as set forth in subparagraphs (a)
 and (c) of the Commercial Computer Software - Restricted
 Rights clause in FAR 52.227-19.
  
 Gaussian, Inc.
 340 Quinnipiac St., Bldg. 40, Wallingford CT 06492
  
  
 ---------------------------------------------------------------
 Warning -- This program may not be used in any manner that
 competes with the business of Gaussian, Inc. or will provide
 assistance to any competitor of Gaussian, Inc.  The licensee
 of this program is prohibited from giving any competitor of
 Gaussian, Inc. access to this program.  By using this program,
 the user acknowledges that Gaussian, Inc. is engaged in the
 business of creating and licensing software in the field of
 computational chemistry and represents and warrants to the
 licensee that it is not a competitor of Gaussian, Inc. and that
 it will not use this program in any manner prohibited above.
 ---------------------------------------------------------------
  

 Cite this work as:
 Gaussian 09, Revision D.01,
 M. J. Frisch, G. W. Trucks, H. B. Schlegel, G. E. Scuseria, 
 M. A. Robb, J. R. Cheeseman, G. Scalmani, V. Barone, B. Mennucci, 
 G. A. Petersson, H. Nakatsuji, M. Caricato, X. Li, H. P. Hratchian, 
 A. F. Izmaylov, J. Bloino, G. Zheng, J. L. Sonnenberg, M. Hada, 
 M. Ehara, K. Toyota, R. Fukuda, J. Hasegawa, M. Ishida, T. Nakajima, 
 Y. Honda, O. Kitao, H. Nakai, T. Vreven, J. A. Montgomery, Jr., 
 J. E. Peralta, F. Ogliaro, M. Bearpark, J. J. Heyd, E. Brothers, 
 K. N. Kudin, V. N. Staroverov, T. Keith, R. Kobayashi, J. Normand, 
 K. Raghavachari, A. Rendell, J. C. Burant, S. S. Iyengar, J. Tomasi, 
 M. Cossi, N. Rega, J. M. Millam, M. Klene, J. E. Knox, J. B. Cross, 
 V. Bakken, C. Adamo, J. Jaramillo, R. Gomperts, R. E. Stratmann, 
 O. Yazyev, A. J. Austin, R. Cammi, C. Pomelli, J. W. Ochterski, 
 R. L. Martin, K. Morokuma, V. G. Zakrzewski, G. A. Voth, 
 P. Salvador, J. J. Dannenberg, S. Dapprich, A. D. Daniels, 
 O. Farkas, J. B. Foresman, J. V. Ortiz, J. Cioslowski, 
 and D. J. Fox, Gaussian, Inc., Wallingford CT, 2013.
 
 ******************************************
 Gaussian 09:  AM64L-G09RevD.01 24-Apr-2013
                15-Mar-2017 
 ******************************************
 %nproc=5
 Will use up to    5 processors via shared memory.
 %chk=chk
 %mem=1000mb
 ------------------------
 # B3lyp/3-21g nosym freq
 ------------------------
 1/10=4,30=1,38=1/1,3;
 2/12=2,15=1,17=6,18=5,40=1/2;
 3/5=5,11=2,16=1,25=1,30=1,71=2,74=-5,140=1/1,2,3;
 4//1;
 5/5=2,38=5,98=1/2;
 8/6=4,10=90,11=11/1;
 11/6=1,8=1,9=11,15=111,16=1,31=1/1,2,10;
 10/6=1,31=1/2;
 6/7=2,8=2,9=2,10=2,18=1,28=1/1;
 7/8=1,10=1,25=1,30=1/1,2,3,16;
 1/10=4,30=1/3;
 99//99;
 -------
 hessian
 -------
 Symbolic Z-matrix:
 Charge =  0 Multiplicity = 1
 8                     0.        0.        0. 
 1                     1.00205   0.        0. 
 1                    -0.15931   0.98941   0. 
 

 GradGradGradGradGradGradGradGradGradGradGradGradGradGradGradGradGradGrad
 Berny optimization.
 Initialization pass.
 Trust Radius=3.00D-01 FncErr=1.00D-07 GrdErr=1.00D-07
 Number of steps in this run=      2 maximum allowed number of steps=      2.
 GradGradGradGradGradGradGradGradGradGradGradGradGradGradGradGradGradGrad

                          Input orientation:                          
 ---------------------------------------------------------------------
 Center     Atomic      Atomic             Coordinates (Angstroms)
 Number     Number       Type             X           Y           Z
 ---------------------------------------------------------------------
      1          8           0        0.000000    0.000000    0.000000
      2          1           0        1.002053    0.000000    0.000000
      3          1           0       -0.159307    0.989406    0.000000
 ---------------------------------------------------------------------
                    Distance matrix (angstroms):
                    1          2          3
     1  O    0.000000
     2  H    1.002053   0.000000
     3  H    1.002149   1.525675   0.000000
 Symmetry turned off by external request.
 Stoichiometry    H2O
 Framework group  CS[SG(H2O)]
 Deg. of freedom     3
 Full point group                 CS      NOp   2
 Rotational constants (GHZ):    668.5602531    430.8620365    262.0078153
 Standard basis: 3-21G (6D, 7F)
    13 basis functions,    21 primitive gaussians,    13 cartesian basis functions
     5 alpha electrons        5 beta electrons
       nuclear repulsion energy         8.7959296246 Hartrees.
 NAtoms=    3 NActive=    3 NUniq=    3 SFac= 1.00D+00 NAtFMM=   60 NAOKFM=F Big=F
 Integral buffers will be    131072 words long.
 Raffenetti 2 integral format.
 Two-electron integral symmetry is turned off.
 One-electron integrals computed using PRISM.
 NBasis=    13 RedAO= T EigKep=  1.16D-01  NBF=    13
 NBsUse=    13 1.00D-06 EigRej= -1.00D+00 NBFU=    13
 ExpMin= 1.83D-01 ExpMax= 3.22D+02 ExpMxC= 3.22D+02 IAcc=1 IRadAn=         1 AccDes= 0.00D+00
 Harris functional with IExCor=  402 and IRadAn=       1 diagonalized for initial guess.
 HarFok:  IExCor=  402 AccDes= 0.00D+00 IRadAn=         1 IDoV= 1 UseB2=F ITyADJ=14
 ICtDFT=  3500011 ScaDFX=  1.000000  1.000000  1.000000  1.000000
 FoFCou: FMM=F IPFlag=           0 FMFlag=      100000 FMFlg1=           0
         NFxFlg=           0 DoJE=T BraDBF=F KetDBF=T FulRan=T
         wScrn=  0.000000 ICntrl=     500 IOpCl=  0 I1Cent=   200000004 NGrid=           0
         NMat0=    1 NMatS0=      1 NMatT0=    0 NMatD0=    1 NMtDS0=    0 NMtDT0=    0
 Symmetry not used in FoFCou.
 Keep R1 ints in memory in canonical form, NReq=883173.
 Requested convergence on RMS density matrix=1.00D-08 within 128 cycles.
 Requested convergence on MAX density matrix=1.00D-06.
 Requested convergence on             energy=1.00D-06.
 No special actions if energy rises.
 Integral accuracy reduced to 1.0D-05 until final iterations.
 Initial convergence to 1.0D-05 achieved.  Increase integral accuracy.
 SCF Done:  E(RB3LYP) =  -75.9733180674     A.U. after    9 cycles
            NFock=  9  Conv=0.96D-08     -V/T= 2.0072
 DoSCS=F DFT=T ScalE2(SS,OS)=  1.000000  1.000000
 Range of M.O.s used for correlation:     1    13
 NBasis=    13 NAE=     5 NBE=     5 NFC=     0 NFV=     0
 NROrb=     13 NOA=     5 NOB=     5 NVA=     8 NVB=     8
 Symmetrizing basis deriv contribution to polar:
 IMax=3 JMax=2 DiffMx= 0.00D+00
 G2DrvN: will do     4 centers at a time, making    1 passes.
 Calling FoFCou, ICntrl=  3107 FMM=F I1Cent=   0 AccDes= 0.00D+00.
 End of G2Drv F.D. properties file   721 does not exist.
 End of G2Drv F.D. properties file   722 does not exist.
 End of G2Drv F.D. properties file   788 does not exist.
          IDoAtm=111
          Differentiating once with respect to electric field.
                with respect to dipole field.
          Differentiating once with respect to nuclear coordinates.
 Keep R1 ints in memory in canonical form, NReq=862315.
          There are    12 degrees of freedom in the 1st order CPHF.  IDoFFX=6 NUNeed=     3.
      9 vectors produced by pass  0 Test12= 3.33D-16 8.33D-09 XBig12= 3.46D+00 1.18D+00.
 AX will form     9 AO Fock derivatives at one time.
      9 vectors produced by pass  1 Test12= 3.33D-16 8.33D-09 XBig12= 1.76D-01 2.04D-01.
      9 vectors produced by pass  2 Test12= 3.33D-16 8.33D-09 XBig12= 8.12D-04 1.37D-02.
      8 vectors produced by pass  3 Test12= 3.33D-16 8.33D-09 XBig12= 5.18D-08 1.48D-04.
      3 vectors produced by pass  4 Test12= 3.33D-16 8.33D-09 XBig12= 4.86D-12 1.57D-06.
      1 vectors produced by pass  5 Test12= 3.33D-16 8.33D-09 XBig12= 6.47D-16 1.86D-08.
 InvSVY:  IOpt=1 It=  1 EMax= 2.22D-16
 Solved reduced A of dimension    39 with     9 vectors.
 Isotropic polarizability for W=    0.000000        4.38 Bohr**3.
 End of Minotr F.D. properties file   721 does not exist.
 End of Minotr F.D. properties file   722 does not exist.
 End of Minotr F.D. properties file   788 does not exist.

 **********************************************************************

            Population analysis using the SCF density.

 **********************************************************************

 Alpha  occ. eigenvalues --  -19.00818  -0.97916  -0.48328  -0.33766  -0.25916
 Alpha virt. eigenvalues --    0.08478   0.17147   0.89304   0.98904   1.43620
 Alpha virt. eigenvalues --    1.54120   1.63178   2.73326
          Condensed to atoms (all electrons):
               1          2          3
     1  O    8.154320   0.235530   0.235530
     2  H    0.235530   0.498047  -0.046282
     3  H    0.235530  -0.046282   0.498080
 Mulliken charges:
               1
     1  O   -0.625379
     2  H    0.312706
     3  H    0.312673
 Sum of Mulliken charges =   0.00000
 Mulliken charges with hydrogens summed into heavy atoms:
               1
     1  O    0.000000
 APT charges:
               1
     1  O   -0.345725
     2  H    0.172874
     3  H    0.172851
 Sum of APT charges =   0.00000
 APT charges with hydrogens summed into heavy atoms:
               1
     1  O    0.000000
 Electronic spatial extent (au):  <R**2>=             19.4125
 Charge=              0.0000 electrons
 Dipole moment (field-independent basis, Debye):
    X=              1.4849    Y=              1.7430    Z=              0.0000  Tot=              2.2898
 Quadrupole moment (field-independent basis, Debye-Ang):
   XX=             -4.7445   YY=             -4.8499   ZZ=             -6.8692
   XY=             -0.3279   XZ=              0.0000   YZ=              0.0000
 Traceless Quadrupole moment (field-independent basis, Debye-Ang):
   XX=              0.7433   YY=              0.6380   ZZ=             -1.3813
   XY=             -0.3279   XZ=              0.0000   YZ=              0.0000
 Octapole moment (field-independent basis, Debye-Ang**2):
  XXX=              0.1898  YYY=             -0.0711  ZZZ=              0.0000  XYY=             -0.6282
  XXY=             -0.4439  XXZ=              0.0000  XZZ=             -0.4325  YZZ=             -0.5079
  YYZ=              0.0000  XYZ=              0.0000
 Hexadecapole moment (field-independent basis, Debye-Ang**3):
 XXXX=             -5.4017 YYYY=             -5.3176 ZZZZ=             -4.2714 XXXY=              0.2613
 XXXZ=              0.0000 YYYX=              0.0013 YYYZ=              0.0000 ZZZX=              0.0000
 ZZZY=              0.0000 XXYY=             -2.3108 XXZZ=             -1.9095 YYZZ=             -1.8823
 XXYZ=              0.0000 YYXZ=              0.0000 ZZXY=              0.0850
 N-N= 8.795929624635D+00 E-N=-1.974275546586D+02  KE= 7.543314512237D+01
  Exact polarizability:   6.369  -1.233   5.974   0.000   0.000   0.793
 Approx polarizability:   7.814  -1.000   7.495   0.000   0.000   0.757
 Calling FoFJK, ICntrl=    100127 FMM=F ISym2X=0 I1Cent= 0 IOpClX= 0 NMat=1 NMatS=1 NMatT=0.
 Full mass-weighted force constant matrix:
 Low frequencies --- -299.4458   -0.0018    0.0008    0.0010   76.1985  396.9650
 Low frequencies --- 1728.9786 3390.5627 3479.1408
 Diagonal vibrational polarizability:
        0.1354840       0.1814747       0.0000000
 Harmonic frequencies (cm**-1), IR intensities (KM/Mole), Raman scattering
 activities (A**4/AMU), depolarization ratios for plane and unpolarized
 incident light, reduced masses (AMU), force constants (mDyne/A),
 and normal coordinates:
                      1                      2                      3
                      A                      A                      A
 Frequencies --   1728.9785              3390.5627              3478.9694
 Red. masses --      1.0874                 1.0408                 1.0765
 Frc consts  --      1.9151                 7.0499                 7.6763
 IR Inten    --     29.4456                16.3087                 6.1627
  Atom  AN      X      Y      Z        X      Y      Z        X      Y      Z
     1   8     0.05   0.06   0.00    -0.03  -0.04   0.00    -0.05   0.04   0.00
     2   1    -0.07  -0.70   0.00     0.69  -0.11   0.00     0.71   0.00   0.00
     3   1    -0.68  -0.18   0.00    -0.22   0.68   0.00     0.11  -0.69   0.00

 -------------------
 - Thermochemistry -
 -------------------
 Temperature   298.150 Kelvin.  Pressure   1.00000 Atm.
 Atom     1 has atomic number  8 and mass  15.99491
 Atom     2 has atomic number  1 and mass   1.00783
 Atom     3 has atomic number  1 and mass   1.00783
 Molecular mass:    18.01056 amu.
 Principal axes and moments of inertia in atomic units:
                           1         2         3
     Eigenvalues --     2.69944   4.18868   6.88812
           X            0.76110   0.64864   0.00000
           Y           -0.64864   0.76110   0.00000
           Z            0.00000   0.00000   1.00000
 This molecule is an asymmetric top.
 Rotational symmetry number  1.
 Rotational temperatures (Kelvin)     32.08579    20.67809    12.57438
 Rotational constants (GHZ):         668.56025   430.86204   262.00782
 Zero-point vibrational energy      51430.5 (Joules/Mol)
                                   12.29219 (Kcal/Mol)
 Vibrational temperatures:   2487.61  4878.26  5005.45
          (Kelvin)
 
 Zero-point correction=                           0.019589 (Hartree/Particle)
 Thermal correction to Energy=                    0.022423
 Thermal correction to Enthalpy=                  0.023367
 Thermal correction to Gibbs Free Energy=         0.001158
 Sum of electronic and zero-point Energies=            -75.953729
 Sum of electronic and thermal Energies=               -75.950895
 Sum of electronic and thermal Enthalpies=             -75.949951
 Sum of electronic and thermal Free Energies=          -75.972160
 
                     E (Thermal)             CV                S
                      KCal/Mol        Cal/Mol-Kelvin    Cal/Mol-Kelvin
 Total                   14.071              5.995             46.743
 Electronic               0.000              0.000              0.000
 Translational            0.889              2.981             34.608
 Rotational               0.889              2.981             12.130
 Vibrational             12.293              0.033              0.004
                       Q            Log10(Q)             Ln(Q)
 Total Bot       0.293222D+00         -0.532804         -1.226826
 Total V=0       0.300208D+09          8.477422         19.519985
 Vib (Bot)       0.976962D-09         -9.010122        -20.746573
 Vib (V=0)       0.100024D+01          0.000103          0.000238
 Electronic      0.100000D+01          0.000000          0.000000
 Translational   0.300432D+07          6.477746         14.915562
 Rotational      0.999016D+02          1.999572          4.604185
 -------------------------------------------------------------------
 Center     Atomic                   Forces (Hartrees/Bohr)
 Number     Number              X              Y              Z
 -------------------------------------------------------------------
      1        8           0.008527688    0.010111434    0.000000000
      2        1          -0.000547763   -0.008189303    0.000000000
      3        1          -0.007979925   -0.001922132    0.000000000
 -------------------------------------------------------------------
 Cartesian Forces:  Max     0.010111434 RMS     0.005866109

 GradGradGradGradGradGradGradGradGradGradGradGradGradGradGradGradGradGrad
 Berny optimization.
 Search for a local minimum.
 Step number   1 out of a maximum of    2
 All quantities printed in internal units (Hartrees-Bohrs-Radians)
 Second derivative matrix not updated -- analytic derivatives used.
 The second derivative matrix:
                          X1        Y1        Z1        X2        Y2
           X1           0.45225
           Y1          -0.06408   0.43131
           Z1           0.00000   0.00000   0.01067
           X2          -0.39982   0.03953   0.00000   0.42251
           Y2          -0.03133  -0.04206   0.00000  -0.02848   0.05692
           Z2           0.00000   0.00000  -0.00531   0.00000   0.00000
           X3          -0.05244   0.02456   0.00000  -0.02270   0.05981
           Y3           0.09542  -0.38925   0.00000  -0.01105  -0.01486
           Z3           0.00000   0.00000  -0.00537   0.00000   0.00000
                          Z2        X3        Y3        Z3
           Z2           0.00093
           X3           0.00000   0.07513
           Y3           0.00000  -0.08437   0.40411
           Z3           0.00438   0.00000   0.00000   0.00099
 ITU=  0
     Eigenvalues ---    0.16971   0.60987   0.74965
 Angle between quadratic step and forces=  31.14 degrees.
 Linear search not attempted -- first point.
 TrRot=  0.010792  0.012719  0.000000 -0.000005  0.000000 -0.000005
 Variable       Old X    -DE/DX   Delta X   Delta X   Delta X     New X
                                 (Linear)    (Quad)   (Total)
    X1        0.00000   0.00853   0.00000   0.01772   0.02851   0.02851
    Y1        0.00000   0.01011   0.00000   0.02086   0.03358   0.03358
    Z1        0.00000   0.00000   0.00000   0.00000   0.00000   0.00000
    X2        1.89361  -0.00055   0.00000   0.00660   0.01740   1.91100
    Y2        0.00000  -0.00819   0.00000  -0.05641  -0.04371  -0.04371
    Z2        0.00000   0.00000   0.00000   0.00000   0.00000   0.00000
    X3       -0.30105  -0.00798   0.00000  -0.05672  -0.04590  -0.34695
    Y3        1.86971  -0.00192   0.00000  -0.00259   0.01014   1.87984
    Z3        0.00000   0.00000   0.00000   0.00000   0.00000   0.00000
         Item               Value     Threshold  Converged?
 Maximum Force            0.010111     0.000450     NO 
 RMS     Force            0.005866     0.000300     NO 
 Maximum Displacement     0.045905     0.001800     NO 
 RMS     Displacement     0.026591     0.001200     NO 
 Predicted change in Energy=-6.389661D-04
 GradGradGradGradGradGradGradGradGradGradGradGradGradGradGradGradGradGrad

 1\1\GINC-GEORGE-MAIN\Freq\RB3LYP\3-21G\H2O1\GEORGE\15-Mar-2017\0\\# B3
 lyp/3-21g nosym freq\\hessian\\0,1\O,0.,0.,0.\H,1.0020532,0.,0.\H,-0.1
 593074,0.9894061,0.\\Version=AM64L-G09RevD.01\HF=-75.9733181\RMSD=9.58
 6e-09\RMSF=5.866e-03\ZeroPoint=0.0195888\Thermal=0.0224233\Dipole=0.58
 41987,0.6857685,0.\DipoleDeriv=-0.1601975,0.0521316,0.,0.05207,-0.1433
 685,0.,0.,0.,-0.7336082,-0.1024891,-0.0150543,0.,-0.095837,0.254282,0.
 ,0.,0.,0.3668291,0.2626866,-0.0370773,0.,0.043767,-0.1109135,0.,0.,0.,
 0.366779\Polar=6.3693539,-1.2330381,5.9735463,0.,0.,0.7926233\PG=CS [S
 G(H2O1)]\NImag=0\\0.45225211,-0.06408369,0.43131071,0.,0.,0.01067475,-
 0.39981664,0.03952714,0.,0.42251401,-0.03133369,-0.04206159,0.,-0.0284
 7548,0.05691815,0.,0.,-0.00530721,0.,0.,0.00092863,-0.05243547,0.02455
 656,0.,-0.02269737,0.05980918,0.,0.07513284,0.09541738,-0.38924912,0.,
 -0.01105165,-0.01485655,0.,-0.08436573,0.40410567,0.,0.,-0.00536754,0.
 ,0.,0.00437858,0.,0.,0.00098895\\-0.00852769,-0.01011143,0.,0.00054776
 ,0.00818930,0.,0.00797993,0.00192213,0.\\\@


 FLOATING POINT NUMBERS ARE LIKE SANDPILES:
 EVERY TIME THAT YOU MOVE ONE, YOU LOSE A LITTLE SAND 
 AND YOU PICK UP A LITTLE DIRT.
 Job cpu time:       0 days  0 hours  0 minutes 21.2 seconds.
 File lengths (MBytes):  RWF=      5 Int=      0 D2E=      0 Chk=      1 Scr=      1
 Normal termination of Gaussian 09 at Wed Mar 15 01:22:56 2017.
