 Entering Gaussian System, Link 0=/home/george/soft/gauss/g09/g09
 Initial command:
 /home/george/soft/gauss/g09/l1.exe "/home/george/soft/gauss/scr/Gau-4189.inp" -scrdir="/home/george/soft/gauss/scr/"
 Entering Link 1 = /home/george/soft/gauss/g09/l1.exe PID=      4191.
  
 Copyright (c) 1988,1990,1992,1993,1995,1998,2003,2009,2013,
            Gaussian, Inc.  All Rights Reserved.
  
 This is part of the Gaussian(R) 09 program.  It is based on
 the Gaussian(R) 03 system (copyright 2003, Gaussian, Inc.),
 the Gaussian(R) 98 system (copyright 1998, Gaussian, Inc.),
 the Gaussian(R) 94 system (copyright 1995, Gaussian, Inc.),
 the Gaussian 92(TM) system (copyright 1992, Gaussian, Inc.),
 the Gaussian 90(TM) system (copyright 1990, Gaussian, Inc.),
 the Gaussian 88(TM) system (copyright 1988, Gaussian, Inc.),
 the Gaussian 86(TM) system (copyright 1986, Carnegie Mellon
 University), and the Gaussian 82(TM) system (copyright 1983,
 Carnegie Mellon University). Gaussian is a federally registered
 trademark of Gaussian, Inc.
  
 This software contains proprietary and confidential information,
 including trade secrets, belonging to Gaussian, Inc.
  
 This software is provided under written license and may be
 used, copied, transmitted, or stored only in accord with that
 written license.
  
 The following legend is applicable only to US Government
 contracts under FAR:
  
                    RESTRICTED RIGHTS LEGEND
  
 Use, reproduction and disclosure by the US Government is
 subject to restrictions as set forth in subparagraphs (a)
 and (c) of the Commercial Computer Software - Restricted
 Rights clause in FAR 52.227-19.
  
 Gaussian, Inc.
 340 Quinnipiac St., Bldg. 40, Wallingford CT 06492
  
  
 ---------------------------------------------------------------
 Warning -- This program may not be used in any manner that
 competes with the business of Gaussian, Inc. or will provide
 assistance to any competitor of Gaussian, Inc.  The licensee
 of this program is prohibited from giving any competitor of
 Gaussian, Inc. access to this program.  By using this program,
 the user acknowledges that Gaussian, Inc. is engaged in the
 business of creating and licensing software in the field of
 computational chemistry and represents and warrants to the
 licensee that it is not a competitor of Gaussian, Inc. and that
 it will not use this program in any manner prohibited above.
 ---------------------------------------------------------------
  

 Cite this work as:
 Gaussian 09, Revision D.01,
 M. J. Frisch, G. W. Trucks, H. B. Schlegel, G. E. Scuseria, 
 M. A. Robb, J. R. Cheeseman, G. Scalmani, V. Barone, B. Mennucci, 
 G. A. Petersson, H. Nakatsuji, M. Caricato, X. Li, H. P. Hratchian, 
 A. F. Izmaylov, J. Bloino, G. Zheng, J. L. Sonnenberg, M. Hada, 
 M. Ehara, K. Toyota, R. Fukuda, J. Hasegawa, M. Ishida, T. Nakajima, 
 Y. Honda, O. Kitao, H. Nakai, T. Vreven, J. A. Montgomery, Jr., 
 J. E. Peralta, F. Ogliaro, M. Bearpark, J. J. Heyd, E. Brothers, 
 K. N. Kudin, V. N. Staroverov, T. Keith, R. Kobayashi, J. Normand, 
 K. Raghavachari, A. Rendell, J. C. Burant, S. S. Iyengar, J. Tomasi, 
 M. Cossi, N. Rega, J. M. Millam, M. Klene, J. E. Knox, J. B. Cross, 
 V. Bakken, C. Adamo, J. Jaramillo, R. Gomperts, R. E. Stratmann, 
 O. Yazyev, A. J. Austin, R. Cammi, C. Pomelli, J. W. Ochterski, 
 R. L. Martin, K. Morokuma, V. G. Zakrzewski, G. A. Voth, 
 P. Salvador, J. J. Dannenberg, S. Dapprich, A. D. Daniels, 
 O. Farkas, J. B. Foresman, J. V. Ortiz, J. Cioslowski, 
 and D. J. Fox, Gaussian, Inc., Wallingford CT, 2013.
 
 ******************************************
 Gaussian 09:  AM64L-G09RevD.01 24-Apr-2013
                20-Mar-2017 
 ******************************************
 %nproc=3
 Will use up to    3 processors via shared memory.
 %chk=chk
 %mem=1000mb
 -------------------------
 # B3lyp/3-21g nosym force
 -------------------------
 1/10=7,30=1,38=1/1,3;
 2/12=2,15=1,17=6,18=5,40=1/2;
 3/5=5,11=2,16=1,25=1,30=1,71=1,74=-5/1,2,3;
 4//1;
 5/5=2,38=5/2;
 6/7=2,8=2,9=2,10=2,28=1/1;
 7/29=1,30=1/1,2,3,16;
 1/10=7,30=1/3;
 99//99;


 Symbolic Z-matrix:
 Charge =  0 Multiplicity = 1
 8                     0.        0.        0. 
 1                     0.96619   0.        0. 
 1                    -0.67226   0.65558   0. 
 

 GradGradGradGradGradGradGradGradGradGradGradGradGradGradGradGradGradGrad
 Berny optimization.
 Initialization pass.
 Trust Radius=3.00D-01 FncErr=1.00D-07 GrdErr=1.00D-07
 Number of steps in this run=      2 maximum allowed number of steps=      2.
 GradGradGradGradGradGradGradGradGradGradGradGradGradGradGradGradGradGrad

                          Input orientation:                          
 ---------------------------------------------------------------------
 Center     Atomic      Atomic             Coordinates (Angstroms)
 Number     Number       Type             X           Y           Z
 ---------------------------------------------------------------------
      1          8           0        0.000000    0.000000    0.000000
      2          1           0        0.966186    0.000000    0.000000
      3          1           0       -0.672261    0.655581    0.000000
 ---------------------------------------------------------------------
                    Distance matrix (angstroms):
                    1          2          3
     1  O    0.000000
     2  H    0.966186   0.000000
     3  H    0.939000   1.764737   0.000000
 Symmetry turned off by external request.
 Stoichiometry    H2O
 Framework group  CS[SG(H2O)]
 Deg. of freedom     3
 Full point group                 CS      NOp   2
 Rotational constants (GHZ):   2192.0888072    321.9417144    280.7145031
 Standard basis: 3-21G (6D, 7F)
    13 basis functions,    21 primitive gaussians,    13 cartesian basis functions
     5 alpha electrons        5 beta electrons
       nuclear repulsion energy         9.1898695265 Hartrees.
 NAtoms=    3 NActive=    3 NUniq=    3 SFac= 1.00D+00 NAtFMM=   60 NAOKFM=F Big=F
 Integral buffers will be    131072 words long.
 Raffenetti 2 integral format.
 Two-electron integral symmetry is turned off.
 One-electron integrals computed using PRISM.
 NBasis=    13 RedAO= T EigKep=  1.14D-01  NBF=    13
 NBsUse=    13 1.00D-06 EigRej= -1.00D+00 NBFU=    13
 ExpMin= 1.83D-01 ExpMax= 3.22D+02 ExpMxC= 3.22D+02 IAcc=1 IRadAn=         1 AccDes= 0.00D+00
 Harris functional with IExCor=  402 and IRadAn=       1 diagonalized for initial guess.
 HarFok:  IExCor=  402 AccDes= 0.00D+00 IRadAn=         1 IDoV= 1 UseB2=F ITyADJ=14
 ICtDFT=  3500011 ScaDFX=  1.000000  1.000000  1.000000  1.000000
 FoFCou: FMM=F IPFlag=           0 FMFlag=      100000 FMFlg1=           0
         NFxFlg=           0 DoJE=T BraDBF=F KetDBF=T FulRan=T
         wScrn=  0.000000 ICntrl=     500 IOpCl=  0 I1Cent=   200000004 NGrid=           0
         NMat0=    1 NMatS0=      1 NMatT0=    0 NMatD0=    1 NMtDS0=    0 NMtDT0=    0
 Symmetry not used in FoFCou.
 Keep R1 ints in memory in canonical form, NReq=883173.
 Requested convergence on RMS density matrix=1.00D-08 within 128 cycles.
 Requested convergence on MAX density matrix=1.00D-06.
 Requested convergence on             energy=1.00D-06.
 No special actions if energy rises.
 Integral accuracy reduced to 1.0D-05 until final iterations.
 Initial convergence to 1.0D-05 achieved.  Increase integral accuracy.
 SCF Done:  E(RB3LYP) =  -75.9517895206     A.U. after   10 cycles
            NFock= 10  Conv=0.23D-08     -V/T= 2.0061

 **********************************************************************

            Population analysis using the SCF density.

 **********************************************************************

 Alpha  occ. eigenvalues --  -18.96463  -0.95526  -0.54404  -0.26232  -0.24073
 Alpha virt. eigenvalues --    0.09619   0.21052   0.85806   1.10642   1.45576
 Alpha virt. eigenvalues --    1.47736   1.77849   2.72260
          Condensed to atoms (all electrons):
               1          2          3
     1  O    8.190729   0.273050   0.276113
     2  H    0.273050   0.387563  -0.029286
     3  H    0.276113  -0.029286   0.381954
 Mulliken charges:
               1
     1  O   -0.739892
     2  H    0.368673
     3  H    0.371219
 Sum of Mulliken charges =   0.00000
 Mulliken charges with hydrogens summed into heavy atoms:
               1
     1  O    0.000000
 Electronic spatial extent (au):  <R**2>=             18.2313
 Charge=              0.0000 electrons
 Dipole moment (field-independent basis, Debye):
    X=              0.6737    Y=              1.5909    Z=              0.0000  Tot=              1.7277
 Quadrupole moment (field-independent basis, Debye-Ang):
   XX=             -3.3606   YY=             -5.6939   ZZ=             -6.7483
   XY=             -1.0903   XZ=              0.0000   YZ=              0.0000
 Traceless Quadrupole moment (field-independent basis, Debye-Ang):
   XX=              1.9070   YY=             -0.4263   ZZ=             -1.4807
   XY=             -1.0903   XZ=              0.0000   YZ=              0.0000
 Octapole moment (field-independent basis, Debye-Ang**2):
  XXX=              0.7436  YYY=             -0.2163  ZZZ=              0.0000  XYY=             -0.6797
  XXY=              0.3059  XXZ=              0.0000  XZZ=             -0.1340  YZZ=             -0.2441
  YYZ=              0.0000  XYZ=              0.0000
 Hexadecapole moment (field-independent basis, Debye-Ang**3):
 XXXX=             -4.5899 YYYY=             -4.6129 ZZZZ=             -4.1283 XXXY=             -0.0392
 XXXZ=              0.0000 YYYX=              0.0197 YYYZ=              0.0000 ZZZX=              0.0000
 ZZZY=              0.0000 XXYY=             -1.5719 XXZZ=             -1.8611 YYZZ=             -1.5237
 XXYZ=              0.0000 YYXZ=              0.0000 ZZXY=              0.1453
 N-N= 9.189869526509D+00 E-N=-1.984057260455D+02  KE= 7.549294495352D+01
 Calling FoFJK, ICntrl=      2127 FMM=F ISym2X=0 I1Cent= 0 IOpClX= 0 NMat=1 NMatS=1 NMatT=0.
 -------------------------------------------------------------------
 Center     Atomic                   Forces (Hartrees/Bohr)
 Number     Number              X              Y              Z
 -------------------------------------------------------------------
      1        8          -0.001228070   -0.078496669    0.000000000
      2        1          -0.000258984    0.032804693    0.000000000
      3        1           0.001487054    0.045691976    0.000000000
 -------------------------------------------------------------------
 Cartesian Forces:  Max     0.078496669 RMS     0.032196304

 GradGradGradGradGradGradGradGradGradGradGradGradGradGradGradGradGradGrad
 Berny optimization.
 Search for a local minimum.
 Step number   1 out of a maximum of    2
 All quantities printed in internal units (Hartrees-Bohrs-Radians)
 Second derivative matrix not updated -- first step.
 The second derivative matrix:
                          X1        Y1        Z1        X2        Y2
           X1           0.87521
           Y1          -0.24126   0.43842
           Z1           0.00000   0.00000   1.00000
           X2          -0.54164   0.00000   0.00000   0.54164
           Y2          -0.03448  -0.08335   0.00000   0.00000   0.04800
           Z2           0.00000   0.00000   0.00000   0.00000   0.00000
           X3          -0.33357   0.24126   0.00000   0.00000   0.03448
           Y3           0.27574  -0.35507   0.00000   0.00000   0.03536
           Z3           0.00000   0.00000   0.00000   0.00000   0.00000
                          Z2        X3        Y3        Z3
           Z2           1.00000
           X3           0.00000   0.33357
           Y3           0.00000  -0.27574   0.31971
           Z3           0.00000   0.00000   0.00000   1.00000
 ITU=  0
     Eigenvalues ---    0.18687   0.70057   1.22033
 Quadratic step=3.329D-01 exceeds max=3.000D-01 adjusted using Lamda=-2.095D-02.
 Angle between NR and scaled steps=   1.02 degrees.
 Angle between quadratic step and forces=  41.03 degrees.
 Linear search not attempted -- first point.
 TrRot= -0.021280 -0.071103  0.000000  0.001024  0.000000  0.001024
 Variable       Old X    -DE/DX   Delta X   Delta X   Delta X     New X
                                 (Linear)    (Quad)   (Total)
    X1        0.00000  -0.00123   0.00000  -0.03654  -0.05758  -0.05758
    Y1        0.00000  -0.07850   0.00000  -0.11597  -0.18715  -0.18715
    Z1        0.00000   0.00000   0.00000   0.00000   0.00000   0.00000
    X2        1.82583  -0.00026   0.00000  -0.03514  -0.05681   1.76902
    Y2        0.00000   0.03280   0.00000   0.18999   0.12256   0.12256
    Z2        0.00000   0.00000   0.00000   0.00000   0.00000   0.00000
    X3       -1.27039   0.00149   0.00000   0.13849   0.11439  -1.15600
    Y3        1.23887   0.04569   0.00000   0.13801   0.06459   1.30346
    Z3        0.00000   0.00000   0.00000   0.00000   0.00000   0.00000
         Item               Value     Threshold  Converged?
 Maximum Force            0.078497     0.000450     NO 
 RMS     Force            0.032196     0.000300     NO 
 Maximum Displacement     0.187145     0.001800     NO 
 RMS     Displacement     0.090580     0.001200     NO 
 Predicted change in Energy=-1.189711D-02
 GradGradGradGradGradGradGradGradGradGradGradGradGradGradGradGradGradGrad

 1\1\GINC-GEORGE-MAIN\Force\RB3LYP\3-21G\H2O1\GEORGE\20-Mar-2017\0\\# B
 3lyp/3-21g nosym force\\\0,1\O,0.,0.,0.\H,0.9661862,0.,0.\H,-0.6722609
 ,0.6555808,0.\\Version=AM64L-G09RevD.01\HF=-75.9517895\RMSD=2.269e-09\
 RMSF=3.220e-02\Dipole=0.2650734,0.6259104,0.\Quadrupole=1.4178008,-0.3
 169508,-1.10085,-0.8106164,0.,0.\PG=CS [SG(H2O1)]\\@


 A MAN THINKING OR WORKING IS ALWAYS ALONE, 
 LET HIM BE WHERE HE WILL.

                                    -- THOREAU
 Job cpu time:       0 days  0 hours  0 minutes  1.7 seconds.
 File lengths (MBytes):  RWF=      5 Int=      0 D2E=      0 Chk=      1 Scr=      1
 Normal termination of Gaussian 09 at Mon Mar 20 22:13:09 2017.
