 Entering Gaussian System, Link 0=/home/george/soft/gauss/g09/g09
 Initial command:
 /home/george/soft/gauss/g09/l1.exe "/home/george/soft/gauss/scr/Gau-12942.inp" -scrdir="/home/george/soft/gauss/scr/"
 Entering Link 1 = /home/george/soft/gauss/g09/l1.exe PID=     12944.
  
 Copyright (c) 1988,1990,1992,1993,1995,1998,2003,2009,2013,
            Gaussian, Inc.  All Rights Reserved.
  
 This is part of the Gaussian(R) 09 program.  It is based on
 the Gaussian(R) 03 system (copyright 2003, Gaussian, Inc.),
 the Gaussian(R) 98 system (copyright 1998, Gaussian, Inc.),
 the Gaussian(R) 94 system (copyright 1995, Gaussian, Inc.),
 the Gaussian 92(TM) system (copyright 1992, Gaussian, Inc.),
 the Gaussian 90(TM) system (copyright 1990, Gaussian, Inc.),
 the Gaussian 88(TM) system (copyright 1988, Gaussian, Inc.),
 the Gaussian 86(TM) system (copyright 1986, Carnegie Mellon
 University), and the Gaussian 82(TM) system (copyright 1983,
 Carnegie Mellon University). Gaussian is a federally registered
 trademark of Gaussian, Inc.
  
 This software contains proprietary and confidential information,
 including trade secrets, belonging to Gaussian, Inc.
  
 This software is provided under written license and may be
 used, copied, transmitted, or stored only in accord with that
 written license.
  
 The following legend is applicable only to US Government
 contracts under FAR:
  
                    RESTRICTED RIGHTS LEGEND
  
 Use, reproduction and disclosure by the US Government is
 subject to restrictions as set forth in subparagraphs (a)
 and (c) of the Commercial Computer Software - Restricted
 Rights clause in FAR 52.227-19.
  
 Gaussian, Inc.
 340 Quinnipiac St., Bldg. 40, Wallingford CT 06492
  
  
 ---------------------------------------------------------------
 Warning -- This program may not be used in any manner that
 competes with the business of Gaussian, Inc. or will provide
 assistance to any competitor of Gaussian, Inc.  The licensee
 of this program is prohibited from giving any competitor of
 Gaussian, Inc. access to this program.  By using this program,
 the user acknowledges that Gaussian, Inc. is engaged in the
 business of creating and licensing software in the field of
 computational chemistry and represents and warrants to the
 licensee that it is not a competitor of Gaussian, Inc. and that
 it will not use this program in any manner prohibited above.
 ---------------------------------------------------------------
  

 Cite this work as:
 Gaussian 09, Revision D.01,
 M. J. Frisch, G. W. Trucks, H. B. Schlegel, G. E. Scuseria, 
 M. A. Robb, J. R. Cheeseman, G. Scalmani, V. Barone, B. Mennucci, 
 G. A. Petersson, H. Nakatsuji, M. Caricato, X. Li, H. P. Hratchian, 
 A. F. Izmaylov, J. Bloino, G. Zheng, J. L. Sonnenberg, M. Hada, 
 M. Ehara, K. Toyota, R. Fukuda, J. Hasegawa, M. Ishida, T. Nakajima, 
 Y. Honda, O. Kitao, H. Nakai, T. Vreven, J. A. Montgomery, Jr., 
 J. E. Peralta, F. Ogliaro, M. Bearpark, J. J. Heyd, E. Brothers, 
 K. N. Kudin, V. N. Staroverov, T. Keith, R. Kobayashi, J. Normand, 
 K. Raghavachari, A. Rendell, J. C. Burant, S. S. Iyengar, J. Tomasi, 
 M. Cossi, N. Rega, J. M. Millam, M. Klene, J. E. Knox, J. B. Cross, 
 V. Bakken, C. Adamo, J. Jaramillo, R. Gomperts, R. E. Stratmann, 
 O. Yazyev, A. J. Austin, R. Cammi, C. Pomelli, J. W. Ochterski, 
 R. L. Martin, K. Morokuma, V. G. Zakrzewski, G. A. Voth, 
 P. Salvador, J. J. Dannenberg, S. Dapprich, A. D. Daniels, 
 O. Farkas, J. B. Foresman, J. V. Ortiz, J. Cioslowski, 
 and D. J. Fox, Gaussian, Inc., Wallingford CT, 2013.
 
 ******************************************
 Gaussian 09:  AM64L-G09RevD.01 24-Apr-2013
                17-Mar-2017 
 ******************************************
 %nproc=5
 Will use up to    5 processors via shared memory.
 %chk=chk
 %mem=1000mb
 ------------------------
 # B3lyp/3-21g nosym freq
 ------------------------
 1/10=4,30=1,38=1/1,3;
 2/12=2,15=1,17=6,18=5,40=1/2;
 3/5=5,11=2,16=1,25=1,30=1,71=2,74=-5,140=1/1,2,3;
 4//1;
 5/5=2,38=5,98=1/2;
 8/6=4,10=90,11=11/1;
 11/6=1,8=1,9=11,15=111,16=1,31=1/1,2,10;
 10/6=1,31=1/2;
 6/7=2,8=2,9=2,10=2,18=1,28=1/1;
 7/8=1,10=1,25=1,30=1/1,2,3,16;
 1/10=4,30=1/3;
 99//99;
 -------
 hessian
 -------
 Symbolic Z-matrix:
 Charge =  0 Multiplicity = 1
 8                     0.        0.        0. 
 1                     0.99672   0.        0. 
 1                    -0.23859   0.96774   0. 
 

 GradGradGradGradGradGradGradGradGradGradGradGradGradGradGradGradGradGrad
 Berny optimization.
 Initialization pass.
 Trust Radius=3.00D-01 FncErr=1.00D-07 GrdErr=1.00D-07
 Number of steps in this run=      2 maximum allowed number of steps=      2.
 GradGradGradGradGradGradGradGradGradGradGradGradGradGradGradGradGradGrad

                          Input orientation:                          
 ---------------------------------------------------------------------
 Center     Atomic      Atomic             Coordinates (Angstroms)
 Number     Number       Type             X           Y           Z
 ---------------------------------------------------------------------
      1          8           0        0.000000    0.000000    0.000000
      2          1           0        0.996717    0.000000    0.000000
      3          1           0       -0.238591    0.967740    0.000000
 ---------------------------------------------------------------------
                    Distance matrix (angstroms):
                    1          2          3
     1  O    0.000000
     2  H    0.996717   0.000000
     3  H    0.996717   1.569237   0.000000
 Symmetry turned off by external request.
 Stoichiometry    H2O
 Framework group  C2V[C2(O),SGV(H2)]
 Deg. of freedom     2
 Full point group                 C2V     NOp   4
 Rotational constants (GHZ):    747.2461779    407.2722206    263.6013515
 Standard basis: 3-21G (6D, 7F)
    13 basis functions,    21 primitive gaussians,    13 cartesian basis functions
     5 alpha electrons        5 beta electrons
       nuclear repulsion energy         8.8319401491 Hartrees.
 NAtoms=    3 NActive=    3 NUniq=    3 SFac= 1.00D+00 NAtFMM=   60 NAOKFM=F Big=F
 Integral buffers will be    131072 words long.
 Raffenetti 2 integral format.
 Two-electron integral symmetry is turned off.
 One-electron integrals computed using PRISM.
 NBasis=    13 RedAO= T EigKep=  1.16D-01  NBF=    13
 NBsUse=    13 1.00D-06 EigRej= -1.00D+00 NBFU=    13
 ExpMin= 1.83D-01 ExpMax= 3.22D+02 ExpMxC= 3.22D+02 IAcc=1 IRadAn=         1 AccDes= 0.00D+00
 Harris functional with IExCor=  402 and IRadAn=       1 diagonalized for initial guess.
 HarFok:  IExCor=  402 AccDes= 0.00D+00 IRadAn=         1 IDoV= 1 UseB2=F ITyADJ=14
 ICtDFT=  3500011 ScaDFX=  1.000000  1.000000  1.000000  1.000000
 FoFCou: FMM=F IPFlag=           0 FMFlag=      100000 FMFlg1=           0
         NFxFlg=           0 DoJE=T BraDBF=F KetDBF=T FulRan=T
         wScrn=  0.000000 ICntrl=     500 IOpCl=  0 I1Cent=   200000004 NGrid=           0
         NMat0=    1 NMatS0=      1 NMatT0=    0 NMatD0=    1 NMtDS0=    0 NMtDT0=    0
 Symmetry not used in FoFCou.
 Keep R1 ints in memory in canonical form, NReq=883173.
 Requested convergence on RMS density matrix=1.00D-08 within 128 cycles.
 Requested convergence on MAX density matrix=1.00D-06.
 Requested convergence on             energy=1.00D-06.
 No special actions if energy rises.
 Integral accuracy reduced to 1.0D-05 until final iterations.
 Initial convergence to 1.0D-05 achieved.  Increase integral accuracy.
 SCF Done:  E(RB3LYP) =  -75.9739646112     A.U. after    9 cycles
            NFock=  9  Conv=0.96D-08     -V/T= 2.0071
 DoSCS=F DFT=T ScalE2(SS,OS)=  1.000000  1.000000
 Range of M.O.s used for correlation:     1    13
 NBasis=    13 NAE=     5 NBE=     5 NFC=     0 NFV=     0
 NROrb=     13 NOA=     5 NOB=     5 NVA=     8 NVB=     8
 Symmetrizing basis deriv contribution to polar:
 IMax=3 JMax=2 DiffMx= 0.00D+00
 G2DrvN: will do     4 centers at a time, making    1 passes.
 Calling FoFCou, ICntrl=  3107 FMM=F I1Cent=   0 AccDes= 0.00D+00.
 End of G2Drv F.D. properties file   721 does not exist.
 End of G2Drv F.D. properties file   722 does not exist.
 End of G2Drv F.D. properties file   788 does not exist.
          IDoAtm=111
          Differentiating once with respect to electric field.
                with respect to dipole field.
          Differentiating once with respect to nuclear coordinates.
 Keep R1 ints in memory in canonical form, NReq=862315.
          There are    12 degrees of freedom in the 1st order CPHF.  IDoFFX=6 NUNeed=     3.
      9 vectors produced by pass  0 Test12= 3.33D-16 8.33D-09 XBig12= 3.36D+00 1.20D+00.
 AX will form     9 AO Fock derivatives at one time.
      9 vectors produced by pass  1 Test12= 3.33D-16 8.33D-09 XBig12= 1.36D-01 1.75D-01.
      9 vectors produced by pass  2 Test12= 3.33D-16 8.33D-09 XBig12= 4.74D-04 9.77D-03.
      8 vectors produced by pass  3 Test12= 3.33D-16 8.33D-09 XBig12= 2.64D-08 1.08D-04.
      3 vectors produced by pass  4 Test12= 3.33D-16 8.33D-09 XBig12= 1.82D-12 8.65D-07.
      1 vectors produced by pass  5 Test12= 3.33D-16 8.33D-09 XBig12= 2.29D-16 9.39D-09.
 InvSVY:  IOpt=1 It=  1 EMax= 2.22D-16
 Solved reduced A of dimension    39 with     9 vectors.
 Isotropic polarizability for W=    0.000000        4.28 Bohr**3.
 End of Minotr F.D. properties file   721 does not exist.
 End of Minotr F.D. properties file   722 does not exist.
 End of Minotr F.D. properties file   788 does not exist.

 **********************************************************************

            Population analysis using the SCF density.

 **********************************************************************

 Alpha  occ. eigenvalues --  -19.00332  -0.97590  -0.49232  -0.32713  -0.25690
 Alpha virt. eigenvalues --    0.08722   0.17659   0.91272   0.97532   1.43851
 Alpha virt. eigenvalues --    1.52796   1.64414   2.73041
          Condensed to atoms (all electrons):
               1          2          3
     1  O    8.159007   0.239540   0.239540
     2  H    0.239540   0.483177  -0.041761
     3  H    0.239540  -0.041761   0.483176
 Mulliken charges:
               1
     1  O   -0.638088
     2  H    0.319044
     3  H    0.319044
 Sum of Mulliken charges =   0.00000
 Mulliken charges with hydrogens summed into heavy atoms:
               1
     1  O    0.000000
 APT charges:
               1
     1  O   -0.372207
     2  H    0.186101
     3  H    0.186106
 Sum of APT charges =   0.00000
 APT charges with hydrogens summed into heavy atoms:
               1
     1  O    0.000000
 Electronic spatial extent (au):  <R**2>=             19.2726
 Charge=              0.0000 electrons
 Dipole moment (field-independent basis, Debye):
    X=              1.3813    Y=              1.7632    Z=              0.0000  Tot=              2.2398
 Quadrupole moment (field-independent basis, Debye-Ang):
   XX=             -4.6398   YY=             -4.8840   ZZ=             -6.8551
   XY=             -0.4951   XZ=              0.0000   YZ=              0.0000
 Traceless Quadrupole moment (field-independent basis, Debye-Ang):
   XX=              0.8198   YY=              0.5757   ZZ=             -1.3955
   XY=             -0.4951   XZ=              0.0000   YZ=              0.0000
 Octapole moment (field-independent basis, Debye-Ang**2):
  XXX=              0.3608  YYY=             -0.0491  ZZZ=              0.0000  XYY=             -0.7019
  XXY=             -0.3863  XXZ=              0.0000  XZZ=             -0.3796  YZZ=             -0.4845
  YYZ=              0.0000  XYZ=              0.0000
 Hexadecapole moment (field-independent basis, Debye-Ang**3):
 XXXX=             -5.3259 YYYY=             -5.1961 ZZZZ=             -4.2543 XXXY=              0.3134
 XXXZ=              0.0000 YYYX=             -0.0502 YYYZ=              0.0000 ZZZX=              0.0000
 ZZZY=              0.0000 XXYY=             -2.2154 XXZZ=             -1.8980 YYZZ=             -1.8432
 XXYZ=              0.0000 YYXZ=              0.0000 ZZXY=              0.1111
 N-N= 8.831940149125D+00 E-N=-1.975273141796D+02  KE= 7.543898589198D+01
  Exact polarizability:   6.374  -1.460   5.654   0.000   0.000   0.800
 Approx polarizability:   7.715  -1.417   7.016   0.000   0.000   0.765
 Calling FoFJK, ICntrl=    100127 FMM=F ISym2X=0 I1Cent= 0 IOpClX= 0 NMat=1 NMatS=1 NMatT=0.
 Full mass-weighted force constant matrix:
 Low frequencies ---  -49.8181  -32.0882   -0.0016   -0.0009    0.0008   53.6482
 Low frequencies --- 1693.7319 3415.0043 3554.3115
 Diagonal vibrational polarizability:
        0.1446374       0.2334819       0.0000000
 Harmonic frequencies (cm**-1), IR intensities (KM/Mole), Raman scattering
 activities (A**4/AMU), depolarization ratios for plane and unpolarized
 incident light, reduced masses (AMU), force constants (mDyne/A),
 and normal coordinates:
                      1                      2                      3
                      A                      A                      A
 Frequencies --   1693.7318              3415.0043              3554.3115
 Red. masses --      1.0895                 1.0389                 1.0812
 Frc consts  --      1.8415                 7.1382                 8.0477
 IR Inten    --     36.5585                13.7356                 1.6304
  Atom  AN      X      Y      Z        X      Y      Z        X      Y      Z
     1   8     0.05   0.06   0.00    -0.03  -0.04   0.00     0.06  -0.04   0.00
     2   1    -0.05  -0.70   0.00     0.70  -0.09   0.00    -0.71   0.00   0.00
     3   1    -0.67  -0.22   0.00    -0.26   0.66   0.00    -0.17   0.68   0.00

 -------------------
 - Thermochemistry -
 -------------------
 Temperature   298.150 Kelvin.  Pressure   1.00000 Atm.
 Atom     1 has atomic number  8 and mass  15.99491
 Atom     2 has atomic number  1 and mass   1.00783
 Atom     3 has atomic number  1 and mass   1.00783
 Molecular mass:    18.01056 amu.
 Principal axes and moments of inertia in atomic units:
                           1         2         3
     Eigenvalues --     2.41519   4.43129   6.84648
           X            0.78720   0.61669   0.00000
           Y           -0.61669   0.78720   0.00000
           Z            0.00000   0.00000   1.00000
 This molecule is an asymmetric top.
 Rotational symmetry number  2.
 Rotational temperatures (Kelvin)     35.86212    19.54596    12.65085
 Rotational constants (GHZ):         747.24618   407.27222   263.60135
 Zero-point vibrational energy      51816.5 (Joules/Mol)
                                   12.38445 (Kcal/Mol)
 Vibrational temperatures:   2436.90  4913.42  5113.86
          (Kelvin)
 
 Zero-point correction=                           0.019736 (Hartree/Particle)
 Thermal correction to Energy=                    0.022571
 Thermal correction to Enthalpy=                  0.023515
 Thermal correction to Gibbs Free Energy=         0.001989
 Sum of electronic and zero-point Energies=            -75.954229
 Sum of electronic and thermal Energies=               -75.951394
 Sum of electronic and thermal Enthalpies=             -75.950450
 Sum of electronic and thermal Free Energies=          -75.971976
 
                     E (Thermal)             CV                S
                      KCal/Mol        Cal/Mol-Kelvin    Cal/Mol-Kelvin
 Total                   14.163              5.999             45.306
 Electronic               0.000              0.000              0.000
 Translational            0.889              2.981             34.608
 Rotational               0.889              2.981             10.692
 Vibrational             12.386              0.038              0.005
                       Q            Log10(Q)             Ln(Q)
 Total Bot       0.121705D+00         -0.914693         -2.106159
 Total V=0       0.145599D+09          8.163160         18.796369
 Vib (Bot)       0.836122D-09         -9.077730        -20.902246
 Vib (V=0)       0.100028D+01          0.000123          0.000282
 Electronic      0.100000D+01          0.000000          0.000000
 Translational   0.300432D+07          6.477746         14.915562
 Rotational      0.484497D+02          1.685291          3.880525
 -------------------------------------------------------------------
 Center     Atomic                   Forces (Hartrees/Bohr)
 Number     Number              X              Y              Z
 -------------------------------------------------------------------
      1        8           0.000146815    0.000181898    0.000000000
      2        1          -0.000008959   -0.000138520    0.000000000
      3        1          -0.000137856   -0.000043378    0.000000000
 -------------------------------------------------------------------
 Cartesian Forces:  Max     0.000181898 RMS     0.000102630

 GradGradGradGradGradGradGradGradGradGradGradGradGradGradGradGradGradGrad
 Berny optimization.
 Search for a local minimum.
 Step number   1 out of a maximum of    2
 All quantities printed in internal units (Hartrees-Bohrs-Radians)
 Second derivative matrix not updated -- analytic derivatives used.
 The second derivative matrix:
                          X1        Y1        Z1        X2        Y2
           X1           0.48182
           Y1          -0.09220   0.43615
           Z1           0.00000   0.00000   0.00018
           X2          -0.41551   0.04023   0.00000   0.43560
           Y2          -0.03410  -0.04351   0.00000  -0.02355   0.05351
           Z2           0.00000   0.00000  -0.00005   0.00000   0.00000
           X3          -0.06631   0.05198   0.00000  -0.02009   0.05765
           Y3           0.12630  -0.39263   0.00000  -0.01668  -0.01000
           Z3           0.00000   0.00000  -0.00013   0.00000   0.00000
                          Z2        X3        Y3        Z3
           Z2          -0.00004
           X3           0.00000   0.08640
           Y3           0.00000  -0.10962   0.40263
           Z3           0.00009   0.00000   0.00000   0.00004
 ITU=  0
     Eigenvalues ---    0.16578   0.60780   0.80043
 Angle between quadratic step and forces=  31.43 degrees.
 Linear search not attempted -- first point.
 TrRot=  0.000188  0.000240  0.000000  0.000000  0.000000  0.000000
 Variable       Old X    -DE/DX   Delta X   Delta X   Delta X     New X
                                 (Linear)    (Quad)   (Total)
    X1        0.00000   0.00015   0.00000   0.00031   0.00050   0.00050
    Y1        0.00000   0.00018   0.00000   0.00039   0.00063   0.00063
    Z1        0.00000   0.00000   0.00000   0.00000   0.00000   0.00000
    X2        1.88352  -0.00001   0.00000   0.00013   0.00032   1.88384
    Y2        0.00000  -0.00014   0.00000  -0.00100  -0.00076  -0.00076
    Z2        0.00000   0.00000   0.00000   0.00000   0.00000   0.00000
    X3       -0.45087  -0.00014   0.00000  -0.00101  -0.00082  -0.45169
    Y3        1.82876  -0.00004   0.00000  -0.00011   0.00013   1.82889
    Z3        0.00000   0.00000   0.00000   0.00000   0.00000   0.00000
         Item               Value     Threshold  Converged?
 Maximum Force            0.000182     0.000450     YES
 RMS     Force            0.000103     0.000300     YES
 Maximum Displacement     0.000818     0.001800     YES
 RMS     Displacement     0.000474     0.001200     YES
 Predicted change in Energy=-1.991405D-07
 Optimization completed.
    -- Stationary point found.
 GradGradGradGradGradGradGradGradGradGradGradGradGradGradGradGradGradGrad

 1\1\GINC-GEORGE-MAIN\Freq\RB3LYP\3-21G\H2O1\GEORGE\17-Mar-2017\0\\# B3
 lyp/3-21g nosym freq\\hessian\\0,1\O,0.,0.,0.\H,0.9967173,0.,0.\H,-0.2
 385907,0.9677396,0.\\Version=AM64L-G09RevD.01\HF=-75.9739646\RMSD=9.61
 7e-09\RMSF=1.026e-04\ZeroPoint=0.0197359\Thermal=0.0225706\Dipole=0.54
 34407,0.6936965,0.\DipoleDeriv=-0.1896526,0.0433335,0.,0.0433308,-0.16
 83119,0.,0.,0.,-0.7586571,-0.0771301,-0.0315792,0.,-0.096535,0.2561028
 ,0.,0.,0.,0.3793312,0.2667827,-0.0117543,0.,0.0532042,-0.087791,0.,0.,
 0.,0.3793259\Polar=6.3736459,-1.4601005,5.653603,0.,0.,0.8002853\PG=C0
 2V [C2(O1),SGV(H2)]\NImag=0\\0.48181898,-0.09220125,0.43614785,0.,0.,0
 .00017852,-0.41550957,0.04022617,0.,0.43560407,-0.03409586,-0.04351402
 ,0.,-0.02355043,0.05351106,0.,0.,-0.00004920,0.,0.,-0.00003813,-0.0663
 0941,0.05197508,0.,-0.02009450,0.05764629,0.,0.08640392,0.12629711,-0.
 39263383,0.,-0.01667574,-0.00999704,0.,-0.10962137,0.40263087,0.,0.,-0
 .00012933,0.,0.,0.00008733,0.,0.,0.00004200\\-0.00014682,-0.00018190,0
 .,0.00000896,0.00013852,0.,0.00013786,0.00004338,0.\\\@


 EVERYTHING'S GOT A MORAL, IF ONLY YOU CAN FIND IT.

                                    -- LEWIS CARROL, ALICE IN WONDERLAND
 Job cpu time:       0 days  0 hours  0 minutes 19.6 seconds.
 File lengths (MBytes):  RWF=      5 Int=      0 D2E=      0 Chk=      1 Scr=      1
 Normal termination of Gaussian 09 at Fri Mar 17 01:06:14 2017.
