 Entering Gaussian System, Link 0=/home/george/soft/gauss//g09/g09
 Initial command:
 /home/george/soft/gauss//g09/l1.exe "/home/george/soft/gauss/scr/Gau-15685.inp" -scrdir="/home/george/soft/gauss/scr/"
 Entering Link 1 = /home/george/soft/gauss//g09/l1.exe PID=     15687.
  
 Copyright (c) 1988,1990,1992,1993,1995,1998,2003,2009,2013,
            Gaussian, Inc.  All Rights Reserved.
  
 This is part of the Gaussian(R) 09 program.  It is based on
 the Gaussian(R) 03 system (copyright 2003, Gaussian, Inc.),
 the Gaussian(R) 98 system (copyright 1998, Gaussian, Inc.),
 the Gaussian(R) 94 system (copyright 1995, Gaussian, Inc.),
 the Gaussian 92(TM) system (copyright 1992, Gaussian, Inc.),
 the Gaussian 90(TM) system (copyright 1990, Gaussian, Inc.),
 the Gaussian 88(TM) system (copyright 1988, Gaussian, Inc.),
 the Gaussian 86(TM) system (copyright 1986, Carnegie Mellon
 University), and the Gaussian 82(TM) system (copyright 1983,
 Carnegie Mellon University). Gaussian is a federally registered
 trademark of Gaussian, Inc.
  
 This software contains proprietary and confidential information,
 including trade secrets, belonging to Gaussian, Inc.
  
 This software is provided under written license and may be
 used, copied, transmitted, or stored only in accord with that
 written license.
  
 The following legend is applicable only to US Government
 contracts under FAR:
  
                    RESTRICTED RIGHTS LEGEND
  
 Use, reproduction and disclosure by the US Government is
 subject to restrictions as set forth in subparagraphs (a)
 and (c) of the Commercial Computer Software - Restricted
 Rights clause in FAR 52.227-19.
  
 Gaussian, Inc.
 340 Quinnipiac St., Bldg. 40, Wallingford CT 06492
  
  
 ---------------------------------------------------------------
 Warning -- This program may not be used in any manner that
 competes with the business of Gaussian, Inc. or will provide
 assistance to any competitor of Gaussian, Inc.  The licensee
 of this program is prohibited from giving any competitor of
 Gaussian, Inc. access to this program.  By using this program,
 the user acknowledges that Gaussian, Inc. is engaged in the
 business of creating and licensing software in the field of
 computational chemistry and represents and warrants to the
 licensee that it is not a competitor of Gaussian, Inc. and that
 it will not use this program in any manner prohibited above.
 ---------------------------------------------------------------
  

 Cite this work as:
 Gaussian 09, Revision D.01,
 M. J. Frisch, G. W. Trucks, H. B. Schlegel, G. E. Scuseria, 
 M. A. Robb, J. R. Cheeseman, G. Scalmani, V. Barone, B. Mennucci, 
 G. A. Petersson, H. Nakatsuji, M. Caricato, X. Li, H. P. Hratchian, 
 A. F. Izmaylov, J. Bloino, G. Zheng, J. L. Sonnenberg, M. Hada, 
 M. Ehara, K. Toyota, R. Fukuda, J. Hasegawa, M. Ishida, T. Nakajima, 
 Y. Honda, O. Kitao, H. Nakai, T. Vreven, J. A. Montgomery, Jr., 
 J. E. Peralta, F. Ogliaro, M. Bearpark, J. J. Heyd, E. Brothers, 
 K. N. Kudin, V. N. Staroverov, T. Keith, R. Kobayashi, J. Normand, 
 K. Raghavachari, A. Rendell, J. C. Burant, S. S. Iyengar, J. Tomasi, 
 M. Cossi, N. Rega, J. M. Millam, M. Klene, J. E. Knox, J. B. Cross, 
 V. Bakken, C. Adamo, J. Jaramillo, R. Gomperts, R. E. Stratmann, 
 O. Yazyev, A. J. Austin, R. Cammi, C. Pomelli, J. W. Ochterski, 
 R. L. Martin, K. Morokuma, V. G. Zakrzewski, G. A. Voth, 
 P. Salvador, J. J. Dannenberg, S. Dapprich, A. D. Daniels, 
 O. Farkas, J. B. Foresman, J. V. Ortiz, J. Cioslowski, 
 and D. J. Fox, Gaussian, Inc., Wallingford CT, 2013.
 
 ******************************************
 Gaussian 09:  AM64L-G09RevD.01 24-Apr-2013
                11-Oct-2017 
 ******************************************
 %RWF=./tmp/8370785104702993942/rwf
 %Int=./tmp/8370785104702993942/int
 %D2E=./tmp/8370785104702993942/d2e
 %Scr=./tmp/8370785104702993942/skr
 %NoSave
 %chk=./tmp/8370785104702993942/chk
 %nproc=3
 Will use up to    3 processors via shared memory.
 %mem=1000mb
 ------------------------
 # B3lyp/3-21g nosym freq
 ------------------------
 1/10=4,30=1,38=1/1,3;
 2/12=2,15=1,17=6,18=5,40=1/2;
 3/5=5,11=2,16=1,25=1,30=1,71=2,74=-5,140=1/1,2,3;
 4//1;
 5/5=2,38=5,98=1/2;
 8/6=4,10=90,11=11/1;
 11/6=1,8=1,9=11,15=111,16=1,31=1/1,2,10;
 10/6=1,31=1/2;
 6/7=2,8=2,9=2,10=2,18=1,28=1/1;
 7/8=1,10=1,25=1,30=1/1,2,3,16;
 1/10=4,30=1/3;
 99//99;


 Symbolic Z-matrix:
 Charge =  0 Multiplicity = 1
 6                    -0.47298  -0.07958   0.03912 
 6                     0.85372  -0.00221   0.529 
 1                    -1.04461   0.73534  -0.42389 
 1                    -1.07332  -0.95656   0.28821 
 1                     1.28406   0.96465   0.19048 
 1                     0.45313  -0.66164  -0.62292 
 

 GradGradGradGradGradGradGradGradGradGradGradGradGradGradGradGradGradGrad
 Berny optimization.
 Initialization pass.
 Trust Radius=3.00D-01 FncErr=1.00D-07 GrdErr=1.00D-07
 Number of steps in this run=      2 maximum allowed number of steps=      2.
 GradGradGradGradGradGradGradGradGradGradGradGradGradGradGradGradGradGrad

                          Input orientation:                          
 ---------------------------------------------------------------------
 Center     Atomic      Atomic             Coordinates (Angstroms)
 Number     Number       Type             X           Y           Z
 ---------------------------------------------------------------------
      1          6           0       -0.472982   -0.079583    0.039120
      2          6           0        0.853716   -0.002208    0.529003
      3          1           0       -1.044608    0.735338   -0.423887
      4          1           0       -1.073315   -0.956557    0.288206
      5          1           0        1.284063    0.964652    0.190476
      6          1           0        0.453126   -0.661642   -0.622920
 ---------------------------------------------------------------------
                    Distance matrix (angstroms):
                    1          2          3          4          5
     1  C    0.000000
     2  C    1.416368   0.000000
     3  H    1.097829   2.248467   0.000000
     4  H    1.091571   2.163842   1.835868   0.000000
     5  H    2.049523   1.111134   2.419243   3.042668   0.000000
     6  H    1.278580   1.386453   2.057759   1.801985   1.999225
                    6
     6  H    0.000000
 Symmetry turned off by external request.
 Stoichiometry    C2H4
 Framework group  C1[X(C2H4)]
 Deg. of freedom    12
 Full point group                 C1      NOp   1
 Rotational constants (GHZ):    127.7131274     28.4992005     26.1556256
 Standard basis: 3-21G (6D, 7F)
    26 basis functions,    42 primitive gaussians,    26 cartesian basis functions
     8 alpha electrons        8 beta electrons
       nuclear repulsion energy        32.8068505159 Hartrees.
 NAtoms=    6 NActive=    6 NUniq=    6 SFac= 1.00D+00 NAtFMM=   60 NAOKFM=F Big=F
 Integral buffers will be    131072 words long.
 Raffenetti 2 integral format.
 Two-electron integral symmetry is turned off.
 One-electron integrals computed using PRISM.
 NBasis=    26 RedAO= T EigKep=  2.02D-02  NBF=    26
 NBsUse=    26 1.00D-06 EigRej= -1.00D+00 NBFU=    26
 ExpMin= 1.83D-01 ExpMax= 1.72D+02 ExpMxC= 1.72D+02 IAcc=1 IRadAn=         1 AccDes= 0.00D+00
 Harris functional with IExCor=  402 and IRadAn=       1 diagonalized for initial guess.
 HarFok:  IExCor=  402 AccDes= 0.00D+00 IRadAn=         1 IDoV= 1 UseB2=F ITyADJ=14
 ICtDFT=  3500011 ScaDFX=  1.000000  1.000000  1.000000  1.000000
 FoFCou: FMM=F IPFlag=           0 FMFlag=      100000 FMFlg1=           0
         NFxFlg=           0 DoJE=T BraDBF=F KetDBF=T FulRan=T
         wScrn=  0.000000 ICntrl=     500 IOpCl=  0 I1Cent=   200000004 NGrid=           0
         NMat0=    1 NMatS0=      1 NMatT0=    0 NMatD0=    1 NMtDS0=    0 NMtDT0=    0
 Symmetry not used in FoFCou.
 Keep R1 ints in memory in canonical form, NReq=942464.
 Requested convergence on RMS density matrix=1.00D-08 within 128 cycles.
 Requested convergence on MAX density matrix=1.00D-06.
 Requested convergence on             energy=1.00D-06.
 No special actions if energy rises.
 Integral accuracy reduced to 1.0D-05 until final iterations.
 Initial convergence to 1.0D-05 achieved.  Increase integral accuracy.
 SCF Done:  E(RB3LYP) =  -78.0179228739     A.U. after   13 cycles
            NFock= 13  Conv=0.21D-08     -V/T= 2.0083
 DoSCS=F DFT=T ScalE2(SS,OS)=  1.000000  1.000000
 Range of M.O.s used for correlation:     1    26
 NBasis=    26 NAE=     8 NBE=     8 NFC=     0 NFV=     0
 NROrb=     26 NOA=     8 NOB=     8 NVA=    18 NVB=    18
 Symmetrizing basis deriv contribution to polar:
 IMax=3 JMax=2 DiffMx= 0.00D+00
 G2DrvN: will do     7 centers at a time, making    1 passes.
 Calling FoFCou, ICntrl=  3107 FMM=F I1Cent=   0 AccDes= 0.00D+00.
 End of G2Drv F.D. properties file   721 does not exist.
 End of G2Drv F.D. properties file   722 does not exist.
 End of G2Drv F.D. properties file   788 does not exist.
          IDoAtm=111111
          Differentiating once with respect to electric field.
                with respect to dipole field.
          Differentiating once with respect to nuclear coordinates.
 Keep R1 ints in memory in canonical form, NReq=921677.
          There are    21 degrees of freedom in the 1st order CPHF.  IDoFFX=6 NUNeed=     3.
     18 vectors produced by pass  0 Test12= 6.86D-16 4.76D-09 XBig12= 2.30D+01 2.57D+00.
 AX will form    18 AO Fock derivatives at one time.
     18 vectors produced by pass  1 Test12= 6.86D-16 4.76D-09 XBig12= 1.60D+00 4.27D-01.
     18 vectors produced by pass  2 Test12= 6.86D-16 4.76D-09 XBig12= 1.04D-02 3.85D-02.
     18 vectors produced by pass  3 Test12= 6.86D-16 4.76D-09 XBig12= 1.38D-05 1.06D-03.
     17 vectors produced by pass  4 Test12= 6.86D-16 4.76D-09 XBig12= 4.13D-09 2.05D-05.
      3 vectors produced by pass  5 Test12= 6.86D-16 4.76D-09 XBig12= 1.16D-12 2.79D-07.
 InvSVY:  IOpt=1 It=  1 EMax= 8.88D-16
 Solved reduced A of dimension    92 with    21 vectors.
 Isotropic polarizability for W=    0.000000       21.20 Bohr**3.
 End of Minotr F.D. properties file   721 does not exist.
 End of Minotr F.D. properties file   722 does not exist.
 End of Minotr F.D. properties file   788 does not exist.

 **********************************************************************

            Population analysis using the SCF density.

 **********************************************************************

 Alpha  occ. eigenvalues --  -10.17217 -10.13363  -0.82249  -0.58235  -0.48823
 Alpha  occ. eigenvalues --   -0.41332  -0.37223  -0.19961
 Alpha virt. eigenvalues --   -0.02533   0.07674   0.12558   0.15227   0.21111
 Alpha virt. eigenvalues --    0.31919   0.68483   0.71768   0.72044   0.77308
 Alpha virt. eigenvalues --    0.77895   0.84935   0.93288   0.99429   1.04028
 Alpha virt. eigenvalues --    1.09806   1.62448   1.63438
          Condensed to atoms (all electrons):
               1          2          3          4          5          6
     1  C    5.626612   0.221149   0.289908   0.369184  -0.065627   0.073924
     2  C    0.221149   5.757584  -0.034751  -0.059515   0.310381   0.112974
     3  H    0.289908  -0.034751   0.595013  -0.049446  -0.014247   0.018786
     4  H    0.369184  -0.059515  -0.049446   0.524491   0.006187  -0.030083
     5  H   -0.065627   0.310381  -0.014247   0.006187   0.622421  -0.017570
     6  H    0.073924   0.112974   0.018786  -0.030083  -0.017570   0.611369
 Mulliken charges:
               1
     1  C   -0.515151
     2  C   -0.307822
     3  H    0.194736
     4  H    0.239182
     5  H    0.158455
     6  H    0.230601
 Sum of Mulliken charges =   0.00000
 Mulliken charges with hydrogens summed into heavy atoms:
               1
     1  C    0.149367
     2  C   -0.149367
 APT charges:
               1
     1  C    0.109611
     2  C   -0.149472
     3  H   -0.005706
     4  H    0.010198
     5  H   -0.006431
     6  H    0.041800
 Sum of APT charges =   0.00000
 APT charges with hydrogens summed into heavy atoms:
               1
     1  C    0.155904
     2  C   -0.155904
 Electronic spatial extent (au):  <R**2>=             86.7930
 Charge=              0.0000 electrons
 Dipole moment (field-independent basis, Debye):
    X=             -1.7036    Y=              0.7242    Z=             -1.7318  Tot=              2.5349
 Quadrupole moment (field-independent basis, Debye-Ang):
   XX=            -15.5838   YY=            -13.6049   ZZ=            -15.2627
   XY=              1.7430   XZ=             -1.9239   YZ=              1.1231
 Traceless Quadrupole moment (field-independent basis, Debye-Ang):
   XX=             -0.7667   YY=              1.2122   ZZ=             -0.4456
   XY=              1.7430   XZ=             -1.9239   YZ=              1.1231
 Octapole moment (field-independent basis, Debye-Ang**2):
  XXX=            -10.9190  YYY=              1.7813  ZZZ=             -9.7970  XYY=             -3.3330
  XXY=              2.4559  XXZ=             -5.1914  XZZ=             -3.5490  YZZ=              1.5550
  YYZ=             -3.3673  XYZ=              1.8585
 Hexadecapole moment (field-independent basis, Debye-Ang**3):
 XXXX=            -70.2882 YYYY=            -26.2576 ZZZZ=            -28.6523 XXXY=              0.8428
 XXXZ=            -11.4574 YYYX=             -1.0235 YYYZ=              0.5682 ZZZX=             -9.7221
 ZZZY=              1.7646 XXYY=            -14.9178 XXZZ=            -17.4653 YYZZ=             -9.2420
 XXYZ=              1.2074 YYXZ=             -3.4045 ZZXY=              0.1383
 N-N= 3.280685051593D+01 E-N=-2.455534075687D+02  KE= 7.737200608086D+01
  Exact polarizability:  27.113   2.082  19.775   3.628  -0.174  16.718
 Approx polarizability:  39.944   2.211  25.691   7.873   0.943  25.811
 Calling FoFJK, ICntrl=    100127 FMM=F ISym2X=0 I1Cent= 0 IOpClX= 0 NMat=1 NMatS=1 NMatT=0.
 Full mass-weighted force constant matrix:
 Low frequencies ----1200.2354  -25.3031    0.0010    0.0012    0.0012   21.2857
 Low frequencies ---   46.0725  983.5061 1080.3587
 ******    1 imaginary frequencies (negative Signs) ****** 
 Diagonal vibrational polarizability:
        1.7886889       0.5505891       1.5528529
 Harmonic frequencies (cm**-1), IR intensities (KM/Mole), Raman scattering
 activities (A**4/AMU), depolarization ratios for plane and unpolarized
 incident light, reduced masses (AMU), force constants (mDyne/A),
 and normal coordinates:
                      1                      2                      3
                      A                      A                      A
 Frequencies --  -1200.2351               983.5047              1080.3586
 Red. masses --      1.1696                 1.0867                 1.3007
 Frc consts  --      0.9927                 0.6193                 0.8945
 IR Inten    --     10.2154                38.5368                39.0843
  Atom  AN      X      Y      Z        X      Y      Z        X      Y      Z
     1   6    -0.02   0.05   0.05    -0.01  -0.05   0.05    -0.08   0.06   0.09
     2   6    -0.04  -0.02  -0.09     0.05   0.00   0.00     0.07  -0.04  -0.01
     3   1    -0.06   0.06   0.11     0.49   0.22  -0.07    -0.06  -0.39  -0.75
     4   1     0.07  -0.09  -0.22    -0.39   0.11  -0.34     0.10  -0.17  -0.24
     5   1     0.02  -0.03   0.08    -0.55   0.19  -0.27     0.06  -0.02   0.02
     6   1     0.77  -0.26   0.48     0.04   0.03   0.04     0.07   0.38  -0.05
                      4                      5                      6
                      A                      A                      A
 Frequencies --   1162.3766              1241.9334              1309.3082
 Red. masses --      1.0965                 2.9151                 1.2638
 Frc consts  --      0.8729                 2.6491                 1.2765
 IR Inten    --     14.7907                13.4193                24.3068
  Atom  AN      X      Y      Z        X      Y      Z        X      Y      Z
     1   6     0.02   0.00   0.02     0.21  -0.05   0.16    -0.06  -0.07   0.03
     2   6    -0.05   0.03   0.06    -0.28   0.03  -0.15     0.06   0.10  -0.03
     3   1    -0.07   0.04   0.20     0.65   0.00  -0.31     0.09   0.06   0.04
     4   1     0.09  -0.17  -0.38     0.04   0.05   0.08    -0.31  -0.06  -0.49
     5   1     0.26  -0.38  -0.70     0.24  -0.11   0.31     0.59  -0.06   0.32
     6   1     0.08   0.22  -0.12    -0.05   0.24  -0.27    -0.29  -0.28   0.10
                      7                      8                      9
                      A                      A                      A
 Frequencies --   1425.4000              1590.9870              2019.8030
 Red. masses --      1.2401                 1.1162                 1.0607
 Frc consts  --      1.4846                 1.6647                 2.5495
 IR Inten    --     19.0814                 0.6183                 8.6966
  Atom  AN      X      Y      Z        X      Y      Z        X      Y      Z
     1   6     0.10   0.09   0.04    -0.10   0.01  -0.02    -0.04   0.02   0.04
     2   6    -0.04  -0.03  -0.01     0.01   0.00   0.00     0.01   0.02   0.03
     3   1    -0.21  -0.17  -0.03     0.51   0.37  -0.03     0.02   0.03  -0.07
     4   1     0.27  -0.18  -0.43     0.60  -0.41   0.12     0.02  -0.02   0.01
     5   1    -0.32   0.10  -0.04     0.03  -0.01  -0.02     0.00   0.03   0.01
     6   1    -0.49  -0.50   0.13    -0.14  -0.07   0.10     0.31  -0.52  -0.78
                     10                     11                     12
                      A                      A                      A
 Frequencies --   2927.9116              3014.8383              3131.6950
 Red. masses --      1.0801                 1.0646                 1.0990
 Frc consts  --      5.4555                 5.7012                 6.3502
 IR Inten    --     87.0954                55.4211                23.1454
  Atom  AN      X      Y      Z        X      Y      Z        X      Y      Z
     1   6     0.00  -0.01   0.00     0.05  -0.04   0.03    -0.03  -0.08   0.03
     2   6     0.04   0.07  -0.02    -0.01  -0.01   0.00     0.00   0.00   0.00
     3   1    -0.10   0.14  -0.08    -0.46   0.71  -0.39    -0.15   0.20  -0.12
     4   1     0.02   0.01   0.01    -0.15  -0.26   0.08     0.53   0.76  -0.23
     5   1    -0.42  -0.84   0.27     0.06   0.15  -0.05     0.03   0.06  -0.02
     6   1    -0.01   0.00  -0.02    -0.01   0.01   0.02    -0.01  -0.01   0.01

 -------------------
 - Thermochemistry -
 -------------------
 Temperature   298.150 Kelvin.  Pressure   1.00000 Atm.
 Atom     1 has atomic number  6 and mass  12.00000
 Atom     2 has atomic number  6 and mass  12.00000
 Atom     3 has atomic number  1 and mass   1.00783
 Atom     4 has atomic number  1 and mass   1.00783
 Atom     5 has atomic number  1 and mass   1.00783
 Atom     6 has atomic number  1 and mass   1.00783
 Molecular mass:    28.03130 amu.
 Principal axes and moments of inertia in atomic units:
                           1         2         3
     Eigenvalues --    14.13121  63.32603  69.00012
           X            0.94593  -0.04071  -0.32179
           Y            0.12606   0.96024   0.24908
           Z            0.29886  -0.27618   0.91346
 This molecule is an asymmetric top.
 Rotational symmetry number  1.
 Rotational temperatures (Kelvin)      6.12926     1.36774     1.25527
 Rotational constants (GHZ):         127.71313    28.49920    26.15563
    1 imaginary frequencies ignored.
 Zero-point vibrational energy     118957.4 (Joules/Mol)
                                   28.43149 (Kcal/Mol)
 Vibrational temperatures:   1415.04  1554.39  1672.40  1786.86  1883.80
          (Kelvin)           2050.83  2289.07  2906.04  4212.61  4337.67
                             4505.81
 
 Zero-point correction=                           0.045308 (Hartree/Particle)
 Thermal correction to Energy=                    0.048262
 Thermal correction to Enthalpy=                  0.049206
 Thermal correction to Gibbs Free Energy=         0.023078
 Sum of electronic and zero-point Energies=            -77.972614
 Sum of electronic and thermal Energies=               -77.969661
 Sum of electronic and thermal Enthalpies=             -77.968716
 Sum of electronic and thermal Free Energies=          -77.994845
 
                     E (Thermal)             CV                S
                      KCal/Mol        Cal/Mol-Kelvin    Cal/Mol-Kelvin
 Total                   30.285              7.371             54.992
 Electronic               0.000              0.000              0.000
 Translational            0.889              2.981             35.927
 Rotational               0.889              2.981             18.763
 Vibrational             28.508              1.409              0.302
                       Q            Log10(Q)             Ln(Q)
 Total Bot       0.242643D-10        -10.615033        -24.442017
 Total V=0       0.168023D+11         10.225369         23.544782
 Vib (Bot)       0.147875D-20        -20.830105        -47.963090
 Vib (V=0)       0.102399D+01          0.010297          0.023709
 Electronic      0.100000D+01          0.000000          0.000000
 Translational   0.583338D+07          6.765920         15.579107
 Rotational      0.281289D+04          3.449152          7.941966
 -------------------------------------------------------------------
 Center     Atomic                   Forces (Hartrees/Bohr)
 Number     Number              X              Y              Z
 -------------------------------------------------------------------
      1        6           0.000000148   -0.000000308    0.000001167
      2        6           0.000000520    0.000005869   -0.000000815
      3        1          -0.000001432   -0.000005202   -0.000005495
      4        1           0.000001606    0.000001068    0.000009525
      5        1          -0.000001149    0.000003465   -0.000009803
      6        1           0.000000307   -0.000004892    0.000005420
 -------------------------------------------------------------------
 Cartesian Forces:  Max     0.000009803 RMS     0.000004431

 GradGradGradGradGradGradGradGradGradGradGradGradGradGradGradGradGradGrad
 Berny optimization.
 Search for a local minimum.
 Step number   1 out of a maximum of    2
 All quantities printed in internal units (Hartrees-Bohrs-Radians)
 Second derivative matrix not updated -- analytic derivatives used.
 The second derivative matrix:
                          X1        Y1        Z1        X2        Y2
           X1           0.59932
           Y1           0.06457   0.52801
           Z1           0.09793  -0.14839   0.24579
           X2          -0.29756   0.01510  -0.08272   0.37153
           Y2          -0.05952  -0.06255   0.01912   0.11254   0.30744
           Z2          -0.10879   0.06670  -0.01506   0.03333  -0.07667
           X3          -0.11999   0.09181  -0.04348  -0.02111   0.01937
           Y3           0.08501  -0.20197   0.07559   0.00440   0.01211
           Z3          -0.04871   0.07508  -0.10166  -0.00442   0.01774
           X4          -0.12372  -0.10730   0.03444  -0.01862  -0.01953
           Y4          -0.11327  -0.22990   0.06199  -0.00635  -0.00173
           Z4           0.02647   0.06348  -0.05405  -0.01549  -0.02210
           X5          -0.03262  -0.04288   0.00901  -0.06147  -0.05949
           Y5           0.00788  -0.00211   0.01067  -0.10434  -0.22880
           Z5          -0.00927  -0.01098  -0.00186   0.04787   0.08339
           X6          -0.02542  -0.02130  -0.01519   0.02724   0.00663
           Y6           0.01533  -0.03147  -0.01899  -0.02136  -0.02646
           Z6           0.04236  -0.04589  -0.07315   0.02144  -0.02148
                          Z2        X3        Y3        Z3        X4
           Z2           0.08012
           X3          -0.02439   0.12374
           Y3           0.00888  -0.09802   0.20594
           Z3           0.02197   0.06224  -0.09365   0.08088
           X4           0.01224   0.01061   0.01305  -0.00671   0.14949
           Y4          -0.01212  -0.01397  -0.01685   0.00717   0.12398
           Z4          -0.01524   0.00499   0.01065   0.00224  -0.03518
           X5           0.02106   0.00307   0.00006   0.00361  -0.00356
           Y5           0.05109   0.00001   0.00304  -0.00402  -0.00249
           Z5          -0.05600   0.00414  -0.00461  -0.00789  -0.00561
           X6           0.06655   0.00369  -0.00450  -0.00601  -0.01420
           Y6          -0.03787   0.00079  -0.00227  -0.00233  -0.00772
           Z6          -0.01578  -0.00351   0.00315   0.00446   0.00082
                          Y4        Z4        X5        Y5        Z5
           Y4           0.24118
           Z4          -0.06278   0.05600
           X5          -0.00108  -0.00603   0.09374
           Y5           0.00328   0.00055   0.09765   0.23428
           Z5           0.00507   0.01031  -0.02741  -0.06453   0.05660
           X6           0.01068   0.02524   0.00084   0.00129  -0.00972
           Y6           0.00402   0.01020   0.00575  -0.00970  -0.00834
           Z6           0.00066   0.00072  -0.00024   0.00623  -0.00116
                          X6        Y6        Z6
           X6           0.00786
           Y6           0.00720   0.06588
           Z6          -0.06087   0.05733   0.08491
 ITU=  0
     Eigenvalues ---   -0.09909   0.04320   0.06757   0.07879   0.11221
     Eigenvalues ---    0.11505   0.15859   0.23380   0.32921   0.52413
     Eigenvalues ---    0.76824   0.92136
 Eigenvalue     1 is  -9.91D-02 should be greater than     0.000000 Eigenvector:
                          X6        Z6        Z2        Y6        Z4
   1                    0.69155   0.44075  -0.33271  -0.21980  -0.17766
                          Y1        Z1        X1        X3        X2
   1                    0.15991   0.15647  -0.14361  -0.11791  -0.11302
 Angle between quadratic step and forces=  78.25 degrees.
 Linear search not attempted -- first point.
 TrRot=  0.000000 -0.000001  0.000000 -0.000001  0.000000 -0.000001
 Variable       Old X    -DE/DX   Delta X   Delta X   Delta X     New X
                                 (Linear)    (Quad)   (Total)
    X1       -0.89381   0.00000   0.00000   0.00000   0.00000  -0.89381
    Y1       -0.15039   0.00000   0.00000   0.00000   0.00000  -0.15039
    Z1        0.07393   0.00000   0.00000   0.00000   0.00000   0.07392
    X2        1.61329   0.00000   0.00000   0.00000   0.00000   1.61329
    Y2       -0.00417   0.00001   0.00000  -0.00001  -0.00001  -0.00419
    Z2        0.99967   0.00000   0.00000   0.00000   0.00000   0.99967
    X3       -1.97402   0.00000   0.00000   0.00000   0.00000  -1.97402
    Y3        1.38959  -0.00001   0.00000   0.00000   0.00000   1.38959
    Z3       -0.80103  -0.00001   0.00000  -0.00001  -0.00001  -0.80104
    X4       -2.02827   0.00000   0.00000   0.00001   0.00000  -2.02827
    Y4       -1.80763   0.00000   0.00000   0.00000   0.00001  -1.80763
    Z4        0.54463   0.00001   0.00000   0.00001   0.00001   0.54464
    X5        2.42653   0.00000   0.00000  -0.00001  -0.00001   2.42652
    Y5        1.82293   0.00000   0.00000   0.00000   0.00000   1.82293
    Z5        0.35995  -0.00001   0.00000   0.00000   0.00000   0.35995
    X6        0.85628   0.00000   0.00000   0.00001   0.00001   0.85629
    Y6       -1.25032   0.00000   0.00000   0.00001   0.00000  -1.25032
    Z6       -1.17715   0.00001   0.00000   0.00000   0.00000  -1.17715
         Item               Value     Threshold  Converged?
 Maximum Force            0.000010     0.000450     YES
 RMS     Force            0.000004     0.000300     YES
 Maximum Displacement     0.000014     0.001800     YES
 RMS     Displacement     0.000006     0.001200     YES
 Predicted change in Energy=-1.088530D-11
 Optimization completed.
    -- Stationary point found.
 GradGradGradGradGradGradGradGradGradGradGradGradGradGradGradGradGradGrad

 1\1\GINC-GEORGE-DELL\Freq\RB3LYP\3-21G\C2H4\GEORGE\11-Oct-2017\0\\# B3
 lyp/3-21g nosym freq\\\0,1\C,-0.4729819477,-0.0795833933,0.039120201\C
 ,0.8537157643,-0.0022081699,0.5290027203\H,-1.0446076826,0.7353381149,
 -0.423887021\H,-1.0733153796,-0.9565570538,0.2882064932\H,1.2840630429
 ,0.9646523106,0.1904760363\H,0.4531260986,-0.6616418954,-0.6229200801\
 \Version=AM64L-G09RevD.01\HF=-78.0179229\RMSD=2.092e-09\RMSF=4.431e-06
 \ZeroPoint=0.0453085\Thermal=0.0482622\Dipole=-0.6702331,0.2849251,-0.
 6813246\DipoleDeriv=0.3692205,-0.10733,-0.0586771,-0.0268458,0.1469546
 ,-0.1586279,-0.143691,-0.2061666,-0.1873418,-0.2116222,0.1823145,0.154
 9781,0.2948178,-0.0066314,-0.0848082,0.0280732,-0.0283232,-0.2301629,-
 0.1421698,0.0837913,-0.1314469,0.1254563,-0.0272062,0.1444323,-0.05948
 23,0.1236752,0.1522586,-0.0245074,-0.0750462,0.0231769,-0.0694956,-0.0
 435531,0.048124,-0.0150233,0.0243205,0.0986556,0.0895979,-0.0259706,0.
 0009784,-0.219378,-0.2028232,0.0674326,0.1529928,0.1311177,0.0939309,-
 0.080519,-0.0577589,0.0109907,-0.1045546,0.1332594,-0.0165527,0.037130
 6,-0.0446236,0.0726596\Polar=27.112917,2.0822296,19.7749614,3.6279656,
 -0.1735674,16.7181832\PG=C01 [X(C2H4)]\NImag=1\\0.59932103,0.06456718,
 0.52800839,0.09793494,-0.14838694,0.24578717,-0.29756364,0.01510205,-0
 .08271982,0.37152634,-0.05951897,-0.06255334,0.01912232,0.11253713,0.3
 0743741,-0.10879078,0.06669676,-0.01506417,0.03332814,-0.07666815,0.08
 011712,-0.11999220,0.09181172,-0.04347510,-0.02111177,0.01937164,-0.02
 439118,0.12373944,0.08500872,-0.20197237,0.07559294,0.00440442,0.01210
 851,0.00887600,-0.09801873,0.20594004,-0.04870997,0.07508127,-0.101661
 70,-0.00442452,0.01773839,0.02196665,0.06223871,-0.09365374,0.08087614
 ,-0.12372251,-0.10730152,0.03444365,-0.01861554,-0.01952634,0.01223636
 ,0.01060851,0.01304827,-0.00670579,0.14949325,-0.11326524,-0.22990366,
 0.06199427,-0.00634675,-0.00173080,-0.01212348,-0.01396848,-0.01684821
 ,0.00717482,0.12398381,0.24118236,0.02647143,0.06348288,-0.05405214,-0
 .01548909,-0.02210322,-0.01523550,0.00499389,0.01064568,0.00224465,-0.
 03518467,-0.06277768,0.05600480,-0.03261889,-0.04288297,0.00900944,-0.
 06147120,-0.05949322,0.02106360,0.00306517,0.00005678,0.00360906,-0.00
 356142,-0.00108012,-0.00603225,0.09374423,0.00787719,-0.00211057,0.010
 66580,-0.10433750,-0.22880032,0.05109237,0.00001187,0.00304295,-0.0040
 1546,-0.00248857,0.00328143,0.00055135,0.09764596,0.23428453,-0.009265
 87,-0.01098152,-0.00185733,0.04786878,0.08339030,-0.05600381,0.0041402
 2,-0.00460861,-0.00788780,-0.00560775,0.00506905,0.01031472,-0.0274119
 8,-0.06452871,0.05659555,-0.02542379,-0.02129646,-0.01519310,0.0272358
 1,0.00662976,0.06655387,0.00369085,-0.00449946,-0.00600749,-0.01420229
 ,0.01067677,0.02524069,0.00084211,0.00129105,-0.00972340,0.00785731,0.
 01533112,-0.03146845,-0.01898839,-0.02135936,-0.02646146,-0.03787351,0
 .00079197,-0.00227092,-0.00232528,-0.00771565,0.00401889,0.01020100,0.
 00575358,-0.00969802,-0.00834051,0.00719835,0.06587996,0.04236025,-0.0
 4589245,-0.07315184,0.02143651,-0.02147964,-0.01578030,-0.00350654,0.0
 0314774,0.00446206,0.00081822,0.00066301,0.00072347,-0.00023788,0.0062
 3464,-0.00116133,-0.06087057,0.05732670,0.08490793\\-0.00000015,0.0000
 0031,-0.00000117,-0.00000052,-0.00000587,0.00000081,0.00000143,0.00000
 520,0.00000549,-0.00000161,-0.00000107,-0.00000952,0.00000115,-0.00000
 346,0.00000980,-0.00000031,0.00000489,-0.00000542\\\@


 THERE IS MORE TO LIFE THAN INCREASING ITS SPEED.

                                       -- GANDHI
 Job cpu time:       0 days  0 hours  0 minutes 31.9 seconds.
 File lengths (MBytes):  RWF=      5 Int=      0 D2E=      0 Chk=      1 Scr=      5
 Normal termination of Gaussian 09 at Wed Oct 11 07:01:34 2017.
