                                                                        
Freq      RB3LYP                                                      3-21G               
Number of atoms                            I                6
Info1-9                                    I   N=           9
          19          19           0           0           0         100
           6          18        -502
Charge                                     I                0
Multiplicity                               I                1
Number of electrons                        I               16
Number of alpha electrons                  I                8
Number of beta electrons                   I                8
Number of basis functions                  I               26
Number of independent functions            I               26
Number of point charges in /Mol/           I                0
Number of translation vectors              I                0
Atomic numbers                             I   N=           6
           6           6           1           1           1           1
Nuclear charges                            R   N=           6
  6.00000000E+00  6.00000000E+00  1.00000000E+00  1.00000000E+00  1.00000000E+00
  1.00000000E+00
Current cartesian coordinates              R   N=          18
 -8.96512837E-01  1.45554442E-01  7.52780109E-02  1.61422896E+00  1.77203618E-02
  9.91862276E-01 -2.03438889E+00  1.80478223E+00  5.35351902E-01 -1.97472230E+00
 -1.40313513E+00 -7.86315718E-01  8.57397854E-01  1.24637119E+00 -1.18331823E+00
  2.43399701E+00 -1.81129326E+00  3.67138638E-01
Force Field                                I                0
Int Atom Types                             I   N=           6
           0           0           0           0           0           0
MM charges                                 R   N=           6
  0.00000000E+00  0.00000000E+00  0.00000000E+00  0.00000000E+00  0.00000000E+00
  0.00000000E+00
Integer atomic weights                     I   N=           6
          12          12           1           1           1           1
Real atomic weights                        R   N=           6
  1.20000000E+01  1.20000000E+01  1.00782504E+00  1.00782504E+00  1.00782504E+00
  1.00782504E+00
Atom fragment info                         I   N=           6
           0           0           0           0           0           0
Atom residue num                           I   N=           6
           0           0           0           0           0           0
Nuclear spins                              I   N=           6
           0           0           1           1           1           1
Nuclear ZEff                               R   N=           6
 -3.60000000E+00 -3.60000000E+00 -1.00000000E+00 -1.00000000E+00 -1.00000000E+00
 -1.00000000E+00
Nuclear ZNuc                               R   N=           6
  6.00000000E+00  6.00000000E+00  1.00000000E+00  1.00000000E+00  1.00000000E+00
  1.00000000E+00
Nuclear QMom                               R   N=           6
  0.00000000E+00  0.00000000E+00  0.00000000E+00  0.00000000E+00  0.00000000E+00
  0.00000000E+00
Nuclear GFac                               R   N=           6
  0.00000000E+00  0.00000000E+00  2.79284600E+00  2.79284600E+00  2.79284600E+00
  2.79284600E+00
MicOpt                                     I   N=           6
          -1          -1          -1          -1          -1          -1
Number of contracted shells                I               14
Number of primitive shells                 I               24
Pure/Cartesian d shells                    I                1
Pure/Cartesian f shells                    I                0
Highest angular momentum                   I                1
Largest degree of contraction              I                3
Shell types                                I   N=          14
           0          -1          -1           0          -1          -1
           0           0           0           0           0           0
           0           0
Number of primitives per shell             I   N=          14
           3           2           1           3           2           1
           2           1           2           1           2           1
           2           1
Shell to atom map                          I   N=          14
           1           1           1           2           2           2
           3           3           4           4           5           5
           6           6
Primitive exponents                        R   N=          24
  1.72256000E+02  2.59109000E+01  5.53335000E+00  3.66498000E+00  7.70545000E-01
  1.95857000E-01  1.72256000E+02  2.59109000E+01  5.53335000E+00  3.66498000E+00
  7.70545000E-01  1.95857000E-01  5.44717800E+00  8.24547240E-01  1.83191580E-01
  5.44717800E+00  8.24547240E-01  1.83191580E-01  5.44717800E+00  8.24547240E-01
  1.83191580E-01  5.44717800E+00  8.24547240E-01  1.83191580E-01
Contraction coefficients                   R   N=          24
  6.17669074E-02  3.58794043E-01  7.00713084E-01 -3.95895162E-01  1.21583436E+00
  1.00000000E+00  6.17669074E-02  3.58794043E-01  7.00713084E-01 -3.95895162E-01
  1.21583436E+00  1.00000000E+00  1.56284979E-01  9.04690877E-01  1.00000000E+00
  1.56284979E-01  9.04690877E-01  1.00000000E+00  1.56284979E-01  9.04690877E-01
  1.00000000E+00  1.56284979E-01  9.04690877E-01  1.00000000E+00
P(S=P) Contraction coefficients            R   N=          24
  0.00000000E+00  0.00000000E+00  0.00000000E+00  2.36459947E-01  8.60618806E-01
  1.00000000E+00  0.00000000E+00  0.00000000E+00  0.00000000E+00  2.36459947E-01
  8.60618806E-01  1.00000000E+00  0.00000000E+00  0.00000000E+00  0.00000000E+00
  0.00000000E+00  0.00000000E+00  0.00000000E+00  0.00000000E+00  0.00000000E+00
  0.00000000E+00  0.00000000E+00  0.00000000E+00  0.00000000E+00
Coordinates of each shell                  R   N=          42
 -8.96512837E-01  1.45554442E-01  7.52780109E-02 -8.96512837E-01  1.45554442E-01
  7.52780109E-02 -8.96512837E-01  1.45554442E-01  7.52780109E-02  1.61422896E+00
  1.77203618E-02  9.91862276E-01  1.61422896E+00  1.77203618E-02  9.91862276E-01
  1.61422896E+00  1.77203618E-02  9.91862276E-01 -2.03438889E+00  1.80478223E+00
  5.35351902E-01 -2.03438889E+00  1.80478223E+00  5.35351902E-01 -1.97472230E+00
 -1.40313513E+00 -7.86315718E-01 -1.97472230E+00 -1.40313513E+00 -7.86315718E-01
  8.57397854E-01  1.24637119E+00 -1.18331823E+00  8.57397854E-01  1.24637119E+00
 -1.18331823E+00  2.43399701E+00 -1.81129326E+00  3.67138638E-01  2.43399701E+00
 -1.81129326E+00  3.67138638E-01
Constraint Structure                       R   N=          18
 -8.96512837E-01  1.45554442E-01  7.52780109E-02  1.61422896E+00  1.77203618E-02
  9.91862276E-01 -2.03438889E+00  1.80478223E+00  5.35351902E-01 -1.97472230E+00
 -1.40313513E+00 -7.86315718E-01  8.57397854E-01  1.24637119E+00 -1.18331823E+00
  2.43399701E+00 -1.81129326E+00  3.67138638E-01
Num ILSW                                   I              100
ILSW                                       I   N=         100
           0           1           0           1           2           0
           0           0           0           0         402          -1
           0           0           0           0           2           0
           0           0           1           0           1           0
           1           1           0           0           0           0
           0           0      100000           0          -1           0
           0           0           0           0           0           0
           0           0           0           1           0           0
           0           0           1           0           0           0
           0           0           4          41           0           0
           0           0           5           0           0           0
           0           0           0           0           0           0
           0           0           0           0           0           0
           0           0           0           0           0           0
           0           0           0           0           0           0
           0           0           0           0           0           0
           0           0           0           0
Num RLSW                                   I               41
RLSW                                       R   N=          41
  8.00000000E-01  7.20000000E-01  1.00000000E+00  8.10000000E-01  2.00000000E-01
  0.00000000E+00  0.00000000E+00  1.00000000E+00  0.00000000E+00  0.00000000E+00
  0.00000000E+00  0.00000000E+00  1.00000000E+00  0.00000000E+00  0.00000000E+00
  0.00000000E+00  0.00000000E+00  1.00000000E+00  0.00000000E+00  0.00000000E+00
  0.00000000E+00  0.00000000E+00  1.00000000E+00  0.00000000E+00  0.00000000E+00
  0.00000000E+00  0.00000000E+00  1.00000000E+00  0.00000000E+00  0.00000000E+00
  0.00000000E+00  0.00000000E+00  1.00000000E+00  0.00000000E+00  0.00000000E+00
  0.00000000E+00  0.00000000E+00  0.00000000E+00  1.00000000E+00  1.00000000E+00
  0.00000000E+00
MxBond                                     I                4
NBond                                      I   N=           6
           4           2           1           1           1           1
IBond                                      I   N=          24
           2           3           4           5           1           6
           0           0           1           0           0           0
           1           0           0           0           1           0
           0           0           2           0           0           0
RBond                                      R   N=          24
  1.50000000E+00  1.00000000E+00  1.00000000E+00  1.00000000E+00  1.50000000E+00
  1.00000000E+00  0.00000000E+00  0.00000000E+00  1.00000000E+00  0.00000000E+00
  0.00000000E+00  0.00000000E+00  1.00000000E+00  0.00000000E+00  0.00000000E+00
  0.00000000E+00  1.00000000E+00  0.00000000E+00  0.00000000E+00  0.00000000E+00
  1.00000000E+00  0.00000000E+00  0.00000000E+00  0.00000000E+00
Virial Ratio                               R      2.008372653640683E+00
SCF Energy                                 R     -7.801792824663907E+01
Total Energy                               R     -7.801792824663907E+01
RMS Force                                  R      3.380224880872458E-04
RMS Density                                R      3.906131112986025E-09
External E-field                           R   N=          35
  0.00000000E+00  0.00000000E+00  0.00000000E+00  0.00000000E+00  0.00000000E+00
  0.00000000E+00  0.00000000E+00  0.00000000E+00  0.00000000E+00  0.00000000E+00
  0.00000000E+00  0.00000000E+00  0.00000000E+00  0.00000000E+00  0.00000000E+00
  0.00000000E+00  0.00000000E+00  0.00000000E+00  0.00000000E+00  0.00000000E+00
  0.00000000E+00  0.00000000E+00  0.00000000E+00  0.00000000E+00  0.00000000E+00
  0.00000000E+00  0.00000000E+00  0.00000000E+00  0.00000000E+00  0.00000000E+00
  0.00000000E+00  0.00000000E+00  0.00000000E+00  0.00000000E+00  0.00000000E+00
IOpCl                                      I                0
IROHF                                      I                0
Alpha Orbital Energies                     R   N=          26
 -1.01724918E+01 -1.01333662E+01 -8.22478856E-01 -5.82404194E-01 -4.88391208E-01
 -4.12987218E-01 -3.72103736E-01 -1.99806749E-01 -2.53280736E-02  7.70120229E-02
  1.25595873E-01  1.52133822E-01  2.11061834E-01  3.19450670E-01  6.84866944E-01
  7.18037784E-01  7.20387169E-01  7.73042682E-01  7.79474982E-01  8.47974698E-01
  9.32977535E-01  9.94247687E-01  1.03999684E+00  1.09836547E+00  1.62267488E+00
  1.63585233E+00
Alpha MO coefficients                      R   N=         676
  9.85805217E-01  1.08939085E-01  1.08885400E-03  1.12778407E-03 -7.05794939E-04
 -7.98895305E-02 -8.57662245E-03 -5.06276239E-03 -9.38254901E-04 -8.03459849E-03
 -1.58773965E-03  1.55504750E-03  2.17358551E-04 -3.28717256E-04  1.67412662E-02
 -1.22460597E-02 -1.08954156E-04  2.87569605E-04 -8.90824117E-04  1.56177920E-02
 -1.86920335E-03  1.22613921E-02  1.25606564E-03  1.19893904E-02 -5.55217601E-04
  2.46537414E-03  8.57479816E-03  2.15115762E-04 -1.11491773E-03  9.88894789E-04
 -1.05302303E-03  1.84822415E-02  1.14084748E-02 -8.93047437E-03  6.05768683E-03
  9.85826769E-01  1.07077143E-01 -2.73550126E-03 -2.67230166E-03 -3.94896529E-03
 -7.42218417E-02  1.27436991E-02  9.38576770E-03  1.45378989E-02 -3.74403408E-05
  4.42318663E-03 -1.35298458E-03 -1.08028202E-03  1.50177524E-03  1.11695152E-02
 -2.35543990E-04  1.80453249E-02 -1.73906499E-01  1.76126704E-01  1.14074345E-01
  1.58473473E-02  1.02593468E-03  4.38942825E-01  5.00755044E-02  3.93841228E-02
 -2.14514977E-02 -1.36929561E-01  1.39407056E-01 -1.15601418E-01 -1.14952725E-02
 -8.65946531E-02  3.01369202E-01 -2.64531598E-02 -2.97760504E-02 -6.90557811E-02
  7.14410383E-02 -1.33804233E-02  6.88025371E-02  3.82564714E-03  1.35398585E-01
 -5.69643956E-03  6.09542024E-02 -2.06659333E-02 -1.17473821E-01  1.15478960E-01
 -2.30572717E-01  4.58216870E-02 -4.64296996E-02  4.52943577E-01 -9.22980215E-02
  3.09015022E-02 -1.88244066E-02  1.30302414E-01 -1.29312505E-01 -1.35208336E-02
  8.64747063E-02  6.54512765E-02 -4.46152488E-01  3.63273140E-02  6.01325148E-02
  7.67632457E-02  1.64552600E-01  8.13270063E-02  1.41493446E-01  7.54300385E-02
 -2.88330687E-02 -1.04456776E-02 -1.38768786E-01 -6.00891402E-02  1.80600395E-02
 -1.85096350E-02  1.52147308E-01  2.98195143E-01  5.95932704E-02 -2.13366785E-02
  1.13512560E-01  2.42999160E-01  5.60536823E-02  1.86181376E-02 -1.30572400E-02
 -9.16865649E-02  1.98312278E-01 -2.66769660E-02 -1.01461704E-01 -6.13380410E-03
  9.55695260E-02 -8.04971138E-03  7.92027458E-02  3.41089042E-02 -2.09472219E-01
 -1.44680273E-01  1.43371968E-01  1.16066973E-01 -1.40653607E-01 -1.30846746E-01
  2.27145070E-03  6.22215331E-05 -1.68738430E-01  1.71281395E-01  2.37836480E-01
 -5.32952032E-02 -1.46357080E-01  1.32512015E-01  1.97452288E-01 -6.69164571E-02
  6.34998470E-02  7.48749450E-02 -1.13497730E-01  1.25556757E-01  2.69084919E-01
  1.32076237E-02 -7.51791455E-02  7.35805429E-02  2.04378350E-01  1.87839994E-01
 -1.02703359E-01 -8.34845134E-02 -1.70372688E-01 -1.68972963E-01  1.33319754E-01
  1.31164171E-01  4.17270201E-02 -4.87261108E-02 -1.74484150E-01  1.64948578E-01
 -2.54073131E-01 -1.88997955E-01 -1.36850836E-01  1.29487551E-01 -2.23226376E-01
  8.99421460E-03 -2.00689397E-02  3.14016264E-01 -5.21734496E-02 -1.03899285E-01
  1.06273182E-02  1.63184145E-01 -2.65342561E-02 -8.93867467E-02  8.45470310E-02
  9.36098913E-02 -2.48941736E-03  1.00785733E-03  1.31911196E-01  2.28935940E-01
  1.49947548E-01  1.80356901E-01  3.79974359E-02 -3.57739757E-02 -1.23742365E-01
 -7.68941163E-02 -4.26087091E-03 -2.34268265E-01 -1.43008463E-01  9.25004031E-04
  9.64129215E-02 -1.10887702E-01  9.11859443E-02  1.77664716E-01  3.08371326E-01
  1.88782961E-01  5.70172520E-01  1.74766829E-01  2.98453114E-01  1.88424107E-01
 -8.04460425E-02 -1.46928526E-01  1.19884411E-01  2.56910714E-01  1.80665340E-02
  1.55340122E-01 -1.14798898E-01 -1.67373681E-01 -2.37110699E-02 -6.56760342E-03
  9.75668275E-02  1.18609859E-01 -2.90212097E-01  3.48850871E-01  2.30958816E-01
  2.39060903E-01 -4.78059216E-01 -1.03912384E-02  2.38045298E-02 -7.42698757E-02
 -1.32999123E-01  3.74195850E-01 -6.15481096E-02 -7.18085803E-02 -2.22178674E-01
  6.19590413E-01 -3.77133915E-02 -1.18915915E-01 -2.32433606E-02 -6.72462887E-02
 -1.85738759E-02 -8.51799038E-02 -3.97318540E-03  2.72739993E-03  4.85036807E-02
 -4.46930381E-02 -1.03711395E-01 -8.41821046E-02  1.87740744E-01 -4.68370824E-01
 -2.22764099E-01 -3.10447588E-01  4.69243968E-01  8.13077292E-02 -6.01638468E-02
 -3.11600128E-02 -1.19285351E-01  1.87392621E-01 -7.21968578E-01 -6.99814661E-02
 -1.98918276E-01  4.60805368E-01 -4.95091909E-02  2.57507019E-02 -3.45341586E-02
  6.70955072E-03  2.16486045E-01  1.53225517E+00  3.84844503E-03  2.68110669E-01
  1.11950620E-01 -6.98893175E-02  1.81134741E-01  1.23074771E-01  3.69061184E-02
 -1.35087576E+00  6.72786172E-01  3.05090423E-01  1.34397632E-01  3.70907166E-02
 -7.68680553E-03 -1.32855179E-01  1.18582952E-01  1.54266943E-02 -6.36810567E-01
 -2.50725235E-01  3.55882106E-01  1.22522151E-01  3.01984280E-02  6.38866919E-01
  9.12286623E-02  1.42482850E+00 -4.13088701E-02 -1.31897104E-01  5.83913698E-02
  8.35917396E-01  1.00548182E-01 -5.25128094E-02  9.81459136E-02 -2.25268244E-01
 -8.74516629E-02 -1.33203812E+00  1.68054316E-01 -7.56362410E-01 -3.09385791E-01
 -6.98974964E-02  3.08766537E-02  1.56892364E-02 -1.42689972E-01 -2.77720072E-02
  8.69615590E-01 -5.07712816E-02 -3.18418099E-01 -7.94551036E-02  1.01859284E-01
  1.60481837E+00 -1.76085386E-02 -1.55301737E-01 -1.24246207E-02  2.03232614E-01
 -9.56812494E-02 -9.46324105E-01  5.53354966E-02 -1.97398319E-02 -3.54310512E-02
  2.63026465E-01  1.11576972E-01 -7.97650229E-01 -4.72640962E-01  1.06006728E+00
  2.84071063E-01 -8.51431010E-02  3.61539150E-02 -2.12835763E-02 -2.45979679E-01
 -8.20443719E-02  1.33051978E+00 -1.69440299E-01 -8.71600499E-01 -4.19044262E-01
 -1.76476949E-02 -9.24993133E-01  4.13464310E-02  1.19431086E+00  6.31697502E-02
  7.25812625E-02  2.30791193E-03 -1.27551181E+00 -8.87389938E-02  2.51905039E-02
  2.47248035E-01  4.48470618E-02  1.11181779E-01  1.58222544E+00  1.85548801E+00
  1.62896112E-01  7.65082417E-01  9.34252118E-02 -2.05995561E-02  3.28750526E-01
 -1.22530370E-01  3.77254224E-02 -1.81140327E+00  1.70994018E+00 -3.82039746E-01
  4.27567812E-01  7.09670601E-02  1.34122563E-01  1.43158732E-02  7.50639165E-01
  7.88984359E-03 -8.83062205E-02 -5.94840757E-02 -4.89895321E-01  5.01731177E-03
 -5.19668283E-02 -5.42924962E-01  6.69526957E-02 -4.96517695E-01 -2.41704766E-01
  1.04295076E+00 -4.84339805E-02  5.73471401E-01 -1.48796885E-02 -4.39638824E-02
  4.48706524E-01 -1.94527470E-01  5.73742295E-02 -3.58838846E-01 -5.26656215E-01
  3.65006506E-01 -1.19951493E-01  6.25623195E-02  2.62763061E-01  2.90466642E-01
  1.93249671E-01  2.95451225E-01 -5.08384543E-01  2.67954657E-01 -1.87002844E-02
  9.48451473E-03  9.47126960E-03 -6.35564812E-01 -9.52212119E-02  6.72347698E-01
 -2.77757279E-02  1.12619676E+00 -3.92249910E-02 -7.48862610E-01 -3.98239600E-02
  1.08555290E-01 -3.85460135E-02 -1.80038816E-03  2.40333782E-01 -3.03473495E-01
  2.25836400E-02  5.54519936E-02 -8.02291132E-02  4.22762044E-01  1.02448753E-01
  1.19633501E-01  5.93617320E-02 -2.29885206E-01 -2.20418654E-01 -4.88555968E-02
 -3.72771832E-02 -4.77676489E-03  7.82598768E-02  6.76548005E-02 -5.50166188E-01
  1.75926548E-01  3.53911464E-01  1.63069723E-01  9.30547096E-01  1.51082427E-02
  4.11032136E-02  3.49811711E-02 -2.59953948E-01 -5.01032858E-01 -1.48893463E-01
 -4.02616168E-01  3.64374563E-01  4.70957586E-01  2.47303700E-01 -2.83532390E-01
 -1.37183116E-01  4.91673810E-01 -2.94210232E-03  7.48398838E-03 -1.83594346E-01
  4.00865742E-01  2.70990128E-02  3.41320915E-02  4.67102533E-02 -1.12680468E-01
  2.91596626E-01 -4.36704000E-01  1.67822567E-01  2.56983308E-01 -4.87556786E-01
  6.23046649E-01 -1.03799744E-02  1.74815978E-02 -7.23193523E-01 -3.63742170E-01
  3.61722255E-01 -3.42140319E-01  9.00464681E-01  3.36178930E-01 -4.09430422E-01
  3.01449313E-01 -2.45012245E-02  1.82186867E-01 -1.04425609E-01 -1.27528214E-01
  2.30508541E-01 -2.02957545E-01  4.86814206E-02  2.45595733E-02 -6.07309186E-02
 -3.70841229E-01  1.65907922E-01 -1.38561886E-01  2.29545608E-01  6.59233417E-01
 -2.72182986E-01  1.08132861E-01  4.20189171E-03 -2.24689120E-02 -2.16901787E-01
 -1.66112124E-02 -9.44269582E-01 -6.83528691E-01  3.83582398E-01 -6.53327592E-02
  1.11695256E+00  9.04364376E-02  9.20437636E-02  4.18016592E-02  2.63487043E-02
 -3.31308436E-01  7.13804120E-01 -2.04936343E-01  1.76872491E-01 -6.27525959E-02
  9.47774685E-02  6.72751494E-02  3.13156037E-01  5.19750160E-02 -3.92267415E-01
 -2.32497890E-01 -7.55283902E-01 -2.63512847E-01  8.77986669E-03 -7.22087872E-03
  3.59424863E-01 -5.38520788E-01  1.07000053E-01 -1.55931020E-01 -6.34362071E-01
  1.00619107E+00 -3.96446614E-02 -2.70064935E-01  3.28793144E-01 -3.47607632E-01
 -1.57466480E-01 -8.38240267E-01  7.37178785E-01  1.52950968E-01  3.58822069E-01
 -8.47656980E-04  1.38523619E-01  1.30454062E-01 -3.70713303E-01 -3.73412478E-01
 -2.67475426E-01  1.09924323E-01  1.00387249E+00  8.44446967E-01 -1.45104640E-02
  1.90830304E-01  6.17913904E-02  5.24875457E-01  1.28617422E-01 -3.48079901E-01
  1.46088076E-01 -1.03892882E+00 -1.45471473E-01  2.95994738E-01 -7.73994910E-01
  3.10517125E-01  4.73164255E-01 -8.01068948E-01  1.24728759E+00  2.83550199E-01
 -6.85503039E-01 -3.96905890E-02  2.19751387E-02 -3.86086023E-01 -7.15346985E-01
 -3.11750981E-01  1.11129519E-01  6.00005991E-01  1.34803823E+00  5.46047833E-01
 -2.04116218E-02 -9.15364535E-03 -1.23245774E-01 -1.15867992E-01  5.31638998E-02
 -2.20259639E-01  3.41003672E-01 -1.83573465E-01 -2.19825705E-01 -4.66910053E-02
 -5.62227677E-01 -9.31731049E-01  1.67278193E+00 -2.05788226E-03 -4.19498737E-01
 -2.60406891E-01  7.22616910E-02 -4.38296135E-02  8.95566333E-02 -4.76774463E-01
  3.01013563E-01  2.08828187E-02  2.94936276E-01  1.10738805E+00 -2.45184776E-01
  2.10474516E-01  1.60651370E-02 -2.94734853E-02 -4.01820126E-01  4.35695467E-01
  1.25930911E-01 -3.55963779E-01  1.03557537E+00 -6.96967138E-01 -4.61103809E-02
 -8.72515484E-01  1.22293489E+00 -1.21048161E-01  2.68458620E-01 -5.11027441E-02
 -6.94545246E-02  5.50357931E-01 -1.14164390E+00  1.25738882E-02 -9.03432752E-02
  1.31515296E-01  2.65984581E-02  1.37291352E-02  2.04802508E-01 -1.37883860E-01
 -8.21466707E-01 -2.84676962E-01  6.28435800E-02 -3.12706713E-01 -1.85521182E-01
  4.89651634E-02 -1.08155478E-01  3.33148589E-01  1.03450840E-01  4.74145565E-01
  3.74543156E-01  6.99362722E-01 -2.94054475E-01 -4.95826135E-01 -1.18437319E-02
  1.56007184E-01  7.56601563E-02  9.81019232E-01 -7.13556037E-01 -1.39869849E-02
 -1.92846524E+00 -1.89477871E-02 -5.02915353E-02  1.56327945E-03  4.14578481E+00
  7.38571923E-01  2.23251874E-01  2.31687661E-01  3.47289239E-03  4.55392729E-01
 -2.01739711E-02 -3.51484229E-02  7.67800497E-02 -1.86814790E+00  9.81026563E-01
  1.05366144E-01  1.29354763E-01 -1.50436352E-01 -7.05100269E-01 -4.53787833E-02
 -5.52489145E-01 -1.96831179E-01 -4.30034907E-01  1.25535206E-01  1.94587662E-03
 -4.47617192E-04 -4.09799199E-01 -7.60920900E-02 -1.29717977E-01  2.67457767E-02
 -3.34923276E-01 -5.12784487E-01  8.77947040E-01 -2.38861982E-01 -8.85542135E-03
 -1.84708607E+00  7.36062524E-02  9.33418543E-02  1.90997990E-01  3.32866045E+00
 -5.85733711E-01 -6.89809916E-01 -9.22103483E-01 -9.22248739E-02 -4.67055563E-01
  2.04665639E-01  1.35886574E-02 -2.88024719E-01 -6.33663091E-01 -2.67001791E-01
 -8.86992742E-01
Total SCF Density                          R   N=         351
  2.03889059E+00  1.18945144E-01  1.20440797E-01 -2.61253010E-03  7.37123973E-03
  3.27115030E-01  5.43391263E-03 -5.17933198E-03 -2.31106955E-02  3.07462826E-01
 -9.15214892E-03  1.23721972E-02  4.92332924E-02  2.96259123E-02  2.53694474E-01
 -4.50870741E-01  2.77794700E-01  2.64815550E-02 -2.02633251E-03  2.90552780E-02
  9.96900195E-01 -3.12992845E-02  1.38065727E-02  2.21025758E-01 -1.24605399E-02
  2.33315529E-02  9.16310918E-02  1.69430521E-01 -1.08378014E-02 -1.76096241E-03
 -2.14481398E-02  2.36942448E-01  2.34253847E-02 -1.08264190E-02 -2.12036141E-02
  1.91974608E-01  1.75728772E-03  6.99436412E-04  8.23056558E-03  1.02055931E-02
  2.14906176E-01 -1.97437543E-02 -1.00689481E-02  1.89880904E-02  2.04213977E-01
  1.07692696E-02 -1.31062352E-02 -4.09919196E-02  1.77340252E-02 -4.76823585E-02
  9.04484403E-02  3.79326430E-02 -2.68210185E-02 -3.68081975E-02  2.04969764E+00
 -1.43283170E-02  1.48638641E-02  5.02285047E-02 -1.39025131E-02  5.01404650E-02
 -3.18965918E-02 -1.83670436E-03  6.54705286E-03  5.03431485E-02  1.09698803E-01
  1.21088895E-01  8.31393556E-02 -8.34157446E-02 -2.26849071E-01  4.23337737E-02
 -1.35370118E-01 -3.20090406E-01 -1.88664798E-01  4.70269820E-02 -8.12127264E-02
 -2.44713437E-02  2.37530657E-03  3.15480101E-01  9.79189464E-03 -8.36544041E-03
 -1.95571353E-03  2.23113629E-02 -1.45160191E-02 -5.30154805E-02 -1.28540513E-02
  5.78431363E-02  5.73711626E-02 -2.63420857E-02  1.25968527E-02  2.37799844E-02
  3.15283284E-01  1.93078369E-02 -1.78387217E-02 -1.10884425E-01 -3.29624536E-02
  1.01485026E-01 -7.82451407E-02 -8.92053496E-02 -8.94944352E-03  1.30584390E-01
 -2.85424347E-02  1.33255346E-02  4.37935612E-02  1.01522099E-01  1.49416867E-01
  7.35114315E-02 -3.13093061E-02  8.19835897E-03 -8.39563448E-02  1.47824960E-01
 -4.40530482E-01 -1.57227297E-01  2.31317038E-02  2.03024493E-01 -5.11460519E-01
  3.23844294E-01  2.11019594E-01  1.65531037E-01  1.76032382E-01  1.40715081E+00
  3.47803276E-03 -3.17689547E-02 -1.29364479E-01  3.03115180E-02 -8.22964520E-02
 -1.32600313E-01 -1.08762988E-01  4.31611211E-02 -3.46817289E-02  4.21488396E-03
  1.31575751E-02  1.72713251E-01  9.21450366E-02  4.49645870E-02  1.60454414E-01
  1.19432772E-01  1.97516144E-02 -1.89354916E-02 -4.46948273E-02 -1.88236723E-02
 -1.90947216E-02 -9.71735888E-02 -4.82637909E-02  2.14072053E-02  4.95487044E-02
 -1.07142725E-02  2.16076029E-02  6.58083828E-02  2.52842318E-01  1.07176333E-01
  2.06922492E-01  9.86873176E-02  2.18308806E-01  1.37025426E-02 -1.09904156E-02
 -9.39059596E-02 -3.31851149E-02  7.05557913E-02 -5.25880269E-02 -7.35521552E-02
 -8.16966593E-03  1.04643105E-01  1.40325076E-02  1.15117938E-02  3.71210690E-02
  1.20427465E-01  1.30516731E-01  1.41933688E-01  4.83241489E-02  1.18230272E-01
  1.19690517E-01 -6.05347825E-02  5.75858274E-02 -1.14052419E-01  1.74854020E-01
  4.92481070E-02  1.92492959E-01 -6.51815984E-02  1.30211144E-01  2.70717996E-02
  1.82174043E-02 -1.68208234E-02  1.96257060E-02 -4.65993097E-02  8.32236440E-03
 -9.98161728E-02  1.20986363E-02 -5.25618198E-02 -1.23454512E-03  1.87691052E-01
  1.51460184E-02  1.76251273E-02 -8.98489694E-02  1.45239695E-01  3.94895059E-02
  7.15744562E-02 -4.73566648E-02  9.40649547E-02  5.41519899E-03  4.37285303E-02
 -3.14542480E-02  2.93751366E-02 -1.15139157E-01 -1.66598316E-02 -1.52158306E-01
 -9.91484469E-03 -1.03736793E-01 -3.05396847E-02  1.46477569E-01  1.47709364E-01
 -6.00123878E-02  5.59139625E-02 -1.07434996E-01 -1.64226889E-01 -8.65684505E-02
  1.53483341E-01 -7.03276361E-02 -1.15237647E-01 -4.81049647E-02 -5.29297736E-03
 -3.30400809E-03  4.43348126E-02  3.73247825E-02  3.77854348E-02  3.92445307E-02
  4.75993197E-02  5.99902292E-02  4.60618642E-02 -3.84713248E-02 -6.74653725E-02
  1.87129137E-01  1.91063245E-02  8.30570272E-03 -1.13666816E-01 -1.47002517E-01
 -6.66683039E-02 -3.59898416E-02 -9.59415380E-02 -8.68451905E-02 -3.13915597E-03
 -3.48899551E-02  2.12768485E-02  1.03069373E-01  1.32878216E-01  9.27583655E-02
  2.12988617E-01  9.46475907E-02  1.47017478E-01  9.77075477E-02 -7.28582120E-02
 -1.03999510E-01  1.61184663E-01  1.99524023E-01 -2.10307926E-02  2.18333129E-02
  9.48067752E-02  6.95358738E-02 -1.28187506E-01  4.63149949E-02  6.00433827E-02
  6.75644151E-02 -1.11323959E-01 -1.51471042E-02  1.81444404E-02  6.93108280E-03
  8.48095175E-02 -9.82585890E-02  9.77978184E-03  3.38564412E-02  4.53016608E-02
 -6.72366822E-02 -1.76768652E-02 -4.30983570E-02 -1.09307735E-02 -6.77658822E-03
  1.72954586E-01  6.26008454E-02 -3.95443959E-02 -2.24741295E-02  6.18845081E-02
 -1.83281116E-01 -1.62227648E-01 -2.98722327E-02  6.97873777E-02 -1.25221238E-01
  1.72712075E-02 -1.88268168E-03  1.53964569E-01  1.54577136E-01 -3.80223500E-02
  7.21490890E-02  1.22660193E-01  1.27455655E-01 -9.60817201E-03 -4.12383158E-02
 -5.94216641E-02  1.83735586E-02  7.35570615E-02  1.55993048E-01  2.37951376E-01
  9.61886311E-03 -1.18751069E-02 -3.38099042E-02  1.81208983E-02 -1.55520786E-02
 -8.32185631E-02 -4.74380050E-02  1.83058106E-03 -4.95928638E-02 -4.82352637E-02
  4.64852859E-02  8.87965377E-02 -1.97897924E-01 -6.22398021E-02  1.33147197E-01
  7.59741692E-04 -1.43735081E-01 -7.79148180E-02  3.90812538E-02  7.80761838E-02
 -2.76099145E-02 -6.07259454E-02 -2.58417908E-02 -4.25282795E-02  1.92386405E-01
  2.46775512E-02 -2.13535566E-02 -8.26371860E-02  4.60150462E-02 -3.79293380E-02
 -7.04538453E-02 -6.01994341E-02  1.18798841E-02 -7.23034434E-02  4.34769207E-02
 -4.05333794E-03  1.03744677E-01 -2.13729508E-01 -6.51850645E-02 -5.13243387E-02
  2.55709959E-03 -1.59866930E-01 -7.97536573E-02  6.75795884E-02  1.14315933E-01
 -3.30596663E-02 -7.88768077E-02 -4.27494055E-02 -4.21666916E-02  1.78444866E-01
  1.98473938E-01
Mulliken Charges                           R   N=           6
 -5.12791824E-01 -3.09754355E-01  2.39023990E-01  1.94669168E-01  2.30167261E-01
  1.58685760E-01
ONIOM Charges                              I   N=          16
           0           0           0           0           0           0
           0           0           0           0           0           0
           0           0           0           0
ONIOM Multiplicities                       I   N=          16
           1           0           0           0           0           0
           0           0           0           0           0           0
           0           0           0           0
Atom Layers                                I   N=           6
           1           1           1           1           1           1
Atom Modifiers                             I   N=           6
           0           0           0           0           0           0
Force Field                                I                0
Int Atom Modified Types                    I   N=           6
           0           0           0           0           0           0
Link Atoms                                 I   N=           6
           0           0           0           0           0           0
Atom Modified MM Charges                   R   N=           6
  0.00000000E+00  0.00000000E+00  0.00000000E+00  0.00000000E+00  0.00000000E+00
  0.00000000E+00
Link Distances                             R   N=          24