 Entering Gaussian System, Link 0=/Johnny/gnovikov/gauss/g09/g09
 Initial command:
 /Johnny/gnovikov/gauss/g09/l1.exe "/Johnny/gnovikov/gauss/scr/Gau-8797.inp" -scrdir="/Johnny/gnovikov/gauss/scr/"
 Entering Link 1 = /Johnny/gnovikov/gauss/g09/l1.exe PID=      8799.
  
 Copyright (c) 1988,1990,1992,1993,1995,1998,2003,2009,2013,
            Gaussian, Inc.  All Rights Reserved.
  
 This is part of the Gaussian(R) 09 program.  It is based on
 the Gaussian(R) 03 system (copyright 2003, Gaussian, Inc.),
 the Gaussian(R) 98 system (copyright 1998, Gaussian, Inc.),
 the Gaussian(R) 94 system (copyright 1995, Gaussian, Inc.),
 the Gaussian 92(TM) system (copyright 1992, Gaussian, Inc.),
 the Gaussian 90(TM) system (copyright 1990, Gaussian, Inc.),
 the Gaussian 88(TM) system (copyright 1988, Gaussian, Inc.),
 the Gaussian 86(TM) system (copyright 1986, Carnegie Mellon
 University), and the Gaussian 82(TM) system (copyright 1983,
 Carnegie Mellon University). Gaussian is a federally registered
 trademark of Gaussian, Inc.
  
 This software contains proprietary and confidential information,
 including trade secrets, belonging to Gaussian, Inc.
  
 This software is provided under written license and may be
 used, copied, transmitted, or stored only in accord with that
 written license.
  
 The following legend is applicable only to US Government
 contracts under FAR:
  
                    RESTRICTED RIGHTS LEGEND
  
 Use, reproduction and disclosure by the US Government is
 subject to restrictions as set forth in subparagraphs (a)
 and (c) of the Commercial Computer Software - Restricted
 Rights clause in FAR 52.227-19.
  
 Gaussian, Inc.
 340 Quinnipiac St., Bldg. 40, Wallingford CT 06492
  
  
 ---------------------------------------------------------------
 Warning -- This program may not be used in any manner that
 competes with the business of Gaussian, Inc. or will provide
 assistance to any competitor of Gaussian, Inc.  The licensee
 of this program is prohibited from giving any competitor of
 Gaussian, Inc. access to this program.  By using this program,
 the user acknowledges that Gaussian, Inc. is engaged in the
 business of creating and licensing software in the field of
 computational chemistry and represents and warrants to the
 licensee that it is not a competitor of Gaussian, Inc. and that
 it will not use this program in any manner prohibited above.
 ---------------------------------------------------------------
  

 Cite this work as:
 Gaussian 09, Revision D.01,
 M. J. Frisch, G. W. Trucks, H. B. Schlegel, G. E. Scuseria, 
 M. A. Robb, J. R. Cheeseman, G. Scalmani, V. Barone, B. Mennucci, 
 G. A. Petersson, H. Nakatsuji, M. Caricato, X. Li, H. P. Hratchian, 
 A. F. Izmaylov, J. Bloino, G. Zheng, J. L. Sonnenberg, M. Hada, 
 M. Ehara, K. Toyota, R. Fukuda, J. Hasegawa, M. Ishida, T. Nakajima, 
 Y. Honda, O. Kitao, H. Nakai, T. Vreven, J. A. Montgomery, Jr., 
 J. E. Peralta, F. Ogliaro, M. Bearpark, J. J. Heyd, E. Brothers, 
 K. N. Kudin, V. N. Staroverov, T. Keith, R. Kobayashi, J. Normand, 
 K. Raghavachari, A. Rendell, J. C. Burant, S. S. Iyengar, J. Tomasi, 
 M. Cossi, N. Rega, J. M. Millam, M. Klene, J. E. Knox, J. B. Cross, 
 V. Bakken, C. Adamo, J. Jaramillo, R. Gomperts, R. E. Stratmann, 
 O. Yazyev, A. J. Austin, R. Cammi, C. Pomelli, J. W. Ochterski, 
 R. L. Martin, K. Morokuma, V. G. Zakrzewski, G. A. Voth, 
 P. Salvador, J. J. Dannenberg, S. Dapprich, A. D. Daniels, 
 O. Farkas, J. B. Foresman, J. V. Ortiz, J. Cioslowski, 
 and D. J. Fox, Gaussian, Inc., Wallingford CT, 2013.
 
 ******************************************
 Gaussian 09:  AM64L-G09RevD.01 24-Apr-2013
                14-Oct-2017 
 ******************************************
 %RWF=./tmp/6448981619386639255/rwf
 %Int=./tmp/6448981619386639255/int
 %D2E=./tmp/6448981619386639255/d2e
 %Scr=./tmp/6448981619386639255/skr
 %NoSave
 %chk=./tmp/6448981619386639255/chk
 %nproc=1
 Will use up to    1 processors via shared memory.
 %mem=1000mb
 ------------------------
 # B3lyp/3-21g nosym freq
 ------------------------
 1/10=4,30=1,38=1/1,3;
 2/12=2,15=1,17=6,18=5,40=1/2;
 3/5=5,11=2,16=1,25=1,30=1,71=2,74=-5,140=1/1,2,3;
 4//1;
 5/5=2,38=5,98=1/2;
 8/6=4,10=90,11=11/1;
 11/6=1,8=1,9=11,15=111,16=1,31=1/1,2,10;
 10/6=1,31=1/2;
 6/7=2,8=2,9=2,10=2,18=1,28=1/1;
 7/8=1,10=1,25=1,30=1/1,2,3,16;
 1/10=4,30=1/3;
 99//99;


 Symbolic Z-matrix:
 Charge =  0 Multiplicity = 1
 6                    -0.47441   0.07702   0.03984 
 6                     0.85421   0.00938   0.52487 
 1                    -1.07655   0.95505   0.2833 
 1                    -1.04498  -0.74251  -0.4161 
 1                     0.45372   0.65955  -0.62619 
 1                     1.28802  -0.9585    0.19428 
 

 GradGradGradGradGradGradGradGradGradGradGradGradGradGradGradGradGradGrad
 Berny optimization.
 Initialization pass.
 Trust Radius=3.00D-01 FncErr=1.00D-07 GrdErr=1.00D-07
 Number of steps in this run=      2 maximum allowed number of steps=      2.
 GradGradGradGradGradGradGradGradGradGradGradGradGradGradGradGradGradGrad

                          Input orientation:                          
 ---------------------------------------------------------------------
 Center     Atomic      Atomic             Coordinates (Angstroms)
 Number     Number       Type             X           Y           Z
 ---------------------------------------------------------------------
      1          6           0       -0.474414    0.077024    0.039835
      2          6           0        0.854213    0.009377    0.524871
      3          1           0       -1.076552    0.955050    0.283296
      4          1           0       -1.044978   -0.742507   -0.416100
      5          1           0        0.453715    0.659551   -0.626185
      6          1           0        1.288016   -0.958495    0.194281
 ---------------------------------------------------------------------
                    Distance matrix (angstroms):
                    1          2          3          4          5
     1  C    0.000000
     2  C    1.416011   0.000000
     3  H    1.092141   2.163449   0.000000
     4  H    1.097749   2.248930   1.836260   0.000000
     5  H    1.282320   1.381323   1.804493   2.063004   0.000000
     6  H    2.049954   1.110968   3.043149   2.421173   1.996822
                    6
     6  H    0.000000
 Symmetry turned off by external request.
 Stoichiometry    C2H4
 Framework group  C1[X(C2H4)]
 Deg. of freedom    12
 Full point group                 C1      NOp   1
 Rotational constants (GHZ):    127.7622781     28.5104947     26.1567965
 Standard basis: 3-21G (6D, 7F)
    26 basis functions,    42 primitive gaussians,    26 cartesian basis functions
     8 alpha electrons        8 beta electrons
       nuclear repulsion energy        32.8092680013 Hartrees.
 NAtoms=    6 NActive=    6 NUniq=    6 SFac= 1.00D+00 NAtFMM=   60 NAOKFM=F Big=F
 Integral buffers will be    131072 words long.
 Raffenetti 2 integral format.
 Two-electron integral symmetry is turned off.
 One-electron integrals computed using PRISM.
 NBasis=    26 RedAO= T EigKep=  2.02D-02  NBF=    26
 NBsUse=    26 1.00D-06 EigRej= -1.00D+00 NBFU=    26
 ExpMin= 1.83D-01 ExpMax= 1.72D+02 ExpMxC= 1.72D+02 IAcc=1 IRadAn=         1 AccDes= 0.00D+00
 Harris functional with IExCor=  402 and IRadAn=       1 diagonalized for initial guess.
 HarFok:  IExCor=  402 AccDes= 0.00D+00 IRadAn=         1 IDoV= 1 UseB2=F ITyADJ=14
 ICtDFT=  3500011 ScaDFX=  1.000000  1.000000  1.000000  1.000000
 FoFCou: FMM=F IPFlag=           0 FMFlag=      100000 FMFlg1=           0
         NFxFlg=           0 DoJE=T BraDBF=F KetDBF=T FulRan=T
         wScrn=  0.000000 ICntrl=     500 IOpCl=  0 I1Cent=   200000004 NGrid=           0
         NMat0=    1 NMatS0=      1 NMatT0=    0 NMatD0=    1 NMtDS0=    0 NMtDT0=    0
 Symmetry not used in FoFCou.
 Keep R1 ints in memory in canonical form, NReq=942464.
 Requested convergence on RMS density matrix=1.00D-08 within 128 cycles.
 Requested convergence on MAX density matrix=1.00D-06.
 Requested convergence on             energy=1.00D-06.
 No special actions if energy rises.
 Integral accuracy reduced to 1.0D-05 until final iterations.
 Initial convergence to 1.0D-05 achieved.  Increase integral accuracy.
 SCF Done:  E(RB3LYP) =  -78.0179282466     A.U. after   13 cycles
            NFock= 13  Conv=0.39D-08     -V/T= 2.0084
 DoSCS=F DFT=T ScalE2(SS,OS)=  1.000000  1.000000
 Range of M.O.s used for correlation:     1    26
 NBasis=    26 NAE=     8 NBE=     8 NFC=     0 NFV=     0
 NROrb=     26 NOA=     8 NOB=     8 NVA=    18 NVB=    18
 Symmetrizing basis deriv contribution to polar:
 IMax=3 JMax=2 DiffMx= 0.00D+00
 G2DrvN: will do     7 centers at a time, making    1 passes.
 Calling FoFCou, ICntrl=  3107 FMM=F I1Cent=   0 AccDes= 0.00D+00.
 End of G2Drv F.D. properties file   721 does not exist.
 End of G2Drv F.D. properties file   722 does not exist.
 End of G2Drv F.D. properties file   788 does not exist.
          IDoAtm=111111
          Differentiating once with respect to electric field.
                with respect to dipole field.
          Differentiating once with respect to nuclear coordinates.
 Keep R1 ints in memory in canonical form, NReq=921677.
          There are    21 degrees of freedom in the 1st order CPHF.  IDoFFX=6 NUNeed=     3.
     18 vectors produced by pass  0 Test12= 6.86D-16 4.76D-09 XBig12= 2.33D+01 2.57D+00.
 AX will form    18 AO Fock derivatives at one time.
     18 vectors produced by pass  1 Test12= 6.86D-16 4.76D-09 XBig12= 1.65D+00 4.31D-01.
     18 vectors produced by pass  2 Test12= 6.86D-16 4.76D-09 XBig12= 1.07D-02 3.91D-02.
     18 vectors produced by pass  3 Test12= 6.86D-16 4.76D-09 XBig12= 1.42D-05 1.09D-03.
     17 vectors produced by pass  4 Test12= 6.86D-16 4.76D-09 XBig12= 4.27D-09 2.09D-05.
      3 vectors produced by pass  5 Test12= 6.86D-16 4.76D-09 XBig12= 1.20D-12 2.85D-07.
 InvSVY:  IOpt=1 It=  1 EMax= 8.88D-16
 Solved reduced A of dimension    92 with    21 vectors.
 Isotropic polarizability for W=    0.000000       21.21 Bohr**3.
 End of Minotr F.D. properties file   721 does not exist.
 End of Minotr F.D. properties file   722 does not exist.
 End of Minotr F.D. properties file   788 does not exist.

 **********************************************************************

            Population analysis using the SCF density.

 **********************************************************************

 Alpha  occ. eigenvalues --  -10.17249 -10.13337  -0.82248  -0.58240  -0.48839
 Alpha  occ. eigenvalues --   -0.41299  -0.37210  -0.19981
 Alpha virt. eigenvalues --   -0.02533   0.07701   0.12560   0.15213   0.21106
 Alpha virt. eigenvalues --    0.31945   0.68487   0.71804   0.72039   0.77304
 Alpha virt. eigenvalues --    0.77947   0.84797   0.93298   0.99425   1.04000
 Alpha virt. eigenvalues --    1.09837   1.62267   1.63585
          Condensed to atoms (all electrons):
               1          2          3          4          5          6
     1  C    5.627918   0.221647   0.369241   0.289778   0.069702  -0.065493
     2  C    0.221647   5.754507  -0.059616  -0.034737   0.116610   0.311343
     3  H    0.369241  -0.059616   0.524620  -0.049434  -0.030003   0.006170
     4  H    0.289778  -0.034737  -0.049434   0.594871   0.019020  -0.014167
     5  H    0.069702   0.116610  -0.030003   0.019020   0.612417  -0.017913
     6  H   -0.065493   0.311343   0.006170  -0.014167  -0.017913   0.621375
 Mulliken charges:
               1
     1  C   -0.512792
     2  C   -0.309754
     3  H    0.239024
     4  H    0.194669
     5  H    0.230167
     6  H    0.158686
 Sum of Mulliken charges =   0.00000
 Mulliken charges with hydrogens summed into heavy atoms:
               1
     1  C    0.151069
     2  C   -0.151069
 APT charges:
               1
     1  C    0.110721
     2  C   -0.153195
     3  H    0.010052
     4  H   -0.005455
     5  H    0.043696
     6  H   -0.005818
 Sum of APT charges =   0.00000
 APT charges with hydrogens summed into heavy atoms:
               1
     1  C    0.159014
     2  C   -0.159014
 Electronic spatial extent (au):  <R**2>=             86.7587
 Charge=              0.0000 electrons
 Dipole moment (field-independent basis, Debye):
    X=             -1.7063    Y=             -0.7408    Z=             -1.7189  Tot=              2.5327
 Quadrupole moment (field-independent basis, Debye-Ang):
   XX=            -15.5696   YY=            -13.6341   ZZ=            -15.2338
   XY=             -1.7666   XZ=             -1.8931   YZ=             -1.1286
 Traceless Quadrupole moment (field-independent basis, Debye-Ang):
   XX=             -0.7571   YY=              1.1784   ZZ=             -0.4213
   XY=             -1.7666   XZ=             -1.8931   YZ=             -1.1286
 Octapole moment (field-independent basis, Debye-Ang**2):
  XXX=            -10.8850  YYY=             -1.8837  ZZZ=             -9.7064  XYY=             -3.3688
  XXY=             -2.5161  XXZ=             -5.1209  XZZ=             -3.4936  YZZ=             -1.5682
  YYZ=             -3.3712  XYZ=             -1.8571
 Hexadecapole moment (field-independent basis, Debye-Ang**3):
 XXXX=            -70.3797 YYYY=            -26.2650 ZZZZ=            -28.4146 XXXY=             -1.0521
 XXXZ=            -11.3123 YYYX=              0.8509 YYYZ=             -0.6157 ZZZX=             -9.5914
 ZZZY=             -1.7896 XXYY=            -14.9682 XXZZ=            -17.4037 YYZZ=             -9.2296
 XXYZ=             -1.2281 YYXZ=             -3.3885 ZZXY=             -0.1834
 N-N= 3.280926800127D+01 E-N=-2.455566255184D+02  KE= 7.737013490495D+01
  Exact polarizability:  27.194  -2.016  19.764   3.661   0.171  16.678
 Approx polarizability:  40.181  -2.087  25.657   8.018  -0.899  25.804
 Calling FoFJK, ICntrl=    100127 FMM=F ISym2X=0 I1Cent= 0 IOpClX= 0 NMat=1 NMatS=1 NMatT=0.
 Full mass-weighted force constant matrix:
 Low frequencies ----1222.4545  -13.1509   -0.0008    0.0008    0.0008   30.4284
 Low frequencies ---   52.7774  983.6276 1079.7486
 ******    1 imaginary frequencies (negative Signs) ****** 
 Diagonal vibrational polarizability:
        1.8159850       0.5431786       1.5661159
 Harmonic frequencies (cm**-1), IR intensities (KM/Mole), Raman scattering
 activities (A**4/AMU), depolarization ratios for plane and unpolarized
 incident light, reduced masses (AMU), force constants (mDyne/A),
 and normal coordinates:
                      1                      2                      3
                      A                      A                      A
 Frequencies --  -1222.4545               983.6241              1079.7469
 Red. masses --      1.1675                 1.0862                 1.3034
 Frc consts  --      1.0279                 0.6192                 0.8953
 IR Inten    --     11.3906                39.1151                39.0564
  Atom  AN      X      Y      Z        X      Y      Z        X      Y      Z
     1   6     0.02   0.05  -0.05    -0.01   0.05   0.05    -0.08  -0.06   0.10
     2   6     0.04  -0.02   0.09     0.04   0.00   0.00     0.07   0.04  -0.01
     3   1    -0.06  -0.09   0.21    -0.39  -0.11  -0.34     0.10   0.16  -0.23
     4   1     0.06   0.06  -0.12     0.49  -0.22  -0.07    -0.06   0.39  -0.76
     5   1    -0.78  -0.27  -0.47     0.04  -0.03   0.04     0.07  -0.37  -0.04
     6   1    -0.02  -0.03  -0.08    -0.55  -0.20  -0.27     0.06   0.02   0.04
                      4                      5                      6
                      A                      A                      A
 Frequencies --   1165.6572              1241.7536              1309.1444
 Red. masses --      1.0943                 2.9228                 1.2684
 Frc consts  --      0.8760                 2.6553                 1.2808
 IR Inten    --     15.3507                13.6060                24.2591
  Atom  AN      X      Y      Z        X      Y      Z        X      Y      Z
     1   6     0.02   0.00   0.02     0.21   0.05   0.16     0.07  -0.07  -0.03
     2   6    -0.05  -0.03   0.06    -0.28  -0.04  -0.14    -0.06   0.10   0.03
     3   1     0.09   0.17  -0.39     0.04  -0.04   0.07     0.32  -0.06   0.48
     4   1    -0.07  -0.04   0.19     0.65   0.00  -0.31    -0.09   0.06  -0.04
     5   1     0.08  -0.22  -0.12    -0.06  -0.23  -0.26     0.29  -0.28  -0.11
     6   1     0.26   0.37  -0.70     0.26   0.12   0.31    -0.59  -0.06  -0.32
                      7                      8                      9
                      A                      A                      A
 Frequencies --   1424.8719              1591.2459              2015.0476
 Red. masses --      1.2377                 1.1170                 1.0605
 Frc consts  --      1.4805                 1.6664                 2.5372
 IR Inten    --     18.6787                 0.6565                 8.4046
  Atom  AN      X      Y      Z        X      Y      Z        X      Y      Z
     1   6    -0.10   0.09  -0.04    -0.10  -0.01  -0.02     0.04   0.02  -0.04
     2   6     0.04  -0.03   0.01     0.01   0.00   0.00    -0.01   0.02  -0.03
     3   1    -0.27  -0.18   0.42     0.60   0.41   0.12    -0.02  -0.03   0.00
     4   1     0.21  -0.17   0.03     0.51  -0.37  -0.03    -0.02   0.03   0.07
     5   1     0.49  -0.50  -0.14    -0.14   0.07   0.10    -0.30  -0.53   0.79
     6   1     0.32   0.10   0.03     0.03   0.01  -0.02     0.00   0.03  -0.01
                     10                     11                     12
                      A                      A                      A
 Frequencies --   2929.5036              3014.9866              3126.8960
 Red. masses --      1.0802                 1.0638                 1.0998
 Frc consts  --      5.4616                 5.6977                 6.3356
 IR Inten    --     86.3565                54.5987                23.8104
  Atom  AN      X      Y      Z        X      Y      Z        X      Y      Z
     1   6     0.00  -0.01   0.00     0.05   0.04   0.02    -0.03   0.08   0.03
     2   6    -0.04   0.07   0.02    -0.01   0.01   0.00     0.00   0.00   0.00
     3   1    -0.02   0.01  -0.01    -0.16   0.27   0.08     0.52  -0.76  -0.22
     4   1     0.10   0.14   0.08    -0.46  -0.71  -0.38    -0.16  -0.21  -0.12
     5   1     0.01   0.00   0.02    -0.01  -0.01   0.02    -0.01   0.01   0.01
     6   1     0.42  -0.84  -0.27     0.06  -0.15  -0.05     0.03  -0.06  -0.02

 -------------------
 - Thermochemistry -
 -------------------
 Temperature   298.150 Kelvin.  Pressure   1.00000 Atm.
 Atom     1 has atomic number  6 and mass  12.00000
 Atom     2 has atomic number  6 and mass  12.00000
 Atom     3 has atomic number  1 and mass   1.00783
 Atom     4 has atomic number  1 and mass   1.00783
 Atom     5 has atomic number  1 and mass   1.00783
 Atom     6 has atomic number  1 and mass   1.00783
 Molecular mass:    28.03130 amu.
 Principal axes and moments of inertia in atomic units:
                           1         2         3
     Eigenvalues --    14.12578  63.30094  68.99703
           X            0.94771   0.03829  -0.31683
           Y           -0.11946   0.96317  -0.24090
           Z            0.29593   0.26615   0.91738
 This molecule is an asymmetric top.
 Rotational symmetry number  1.
 Rotational temperatures (Kelvin)      6.13161     1.36829     1.25533
 Rotational constants (GHZ):         127.76228    28.51049    26.15680
    1 imaginary frequencies ignored.
 Zero-point vibrational energy     118923.6 (Joules/Mol)
                                   28.42343 (Kcal/Mol)
 Vibrational temperatures:   1415.21  1553.51  1677.12  1786.60  1883.56
          (Kelvin)           2050.07  2289.45  2899.20  4214.90  4337.89
                             4498.90
 
 Zero-point correction=                           0.045296 (Hartree/Particle)
 Thermal correction to Energy=                    0.048249
 Thermal correction to Enthalpy=                  0.049193
 Thermal correction to Gibbs Free Energy=         0.023065
 Sum of electronic and zero-point Energies=            -77.972633
 Sum of electronic and thermal Energies=               -77.969679
 Sum of electronic and thermal Enthalpies=             -77.968735
 Sum of electronic and thermal Free Energies=          -77.994863
 
                     E (Thermal)             CV                S
                      KCal/Mol        Cal/Mol-Kelvin    Cal/Mol-Kelvin
 Total                   30.277              7.369             54.991
 Electronic               0.000              0.000              0.000
 Translational            0.889              2.981             35.927
 Rotational               0.889              2.981             18.762
 Vibrational             28.499              1.408              0.302
                       Q            Log10(Q)             Ln(Q)
 Total Bot       0.245855D-10        -10.609321        -24.428864
 Total V=0       0.167947D+11         10.225172         23.544329
 Vib (Bot)       0.149895D-20        -20.824214        -47.949524
 Vib (V=0)       0.102395D+01          0.010279          0.023669
 Electronic      0.100000D+01          0.000000          0.000000
 Translational   0.583338D+07          6.765920         15.579107
 Rotational      0.281172D+04          3.448973          7.941553
 -------------------------------------------------------------------
 Center     Atomic                   Forces (Hartrees/Bohr)
 Number     Number              X              Y              Z
 -------------------------------------------------------------------
      1        6          -0.000270629   -0.000007169    0.000564319
      2        6          -0.000517616   -0.000027687   -0.000734926
      3        1           0.000243648   -0.000210768   -0.000337121
      4        1          -0.000038780   -0.000159480    0.000175161
      5        1           0.000583846    0.000341037    0.000345817
      6        1          -0.000000469    0.000064067   -0.000013251
 -------------------------------------------------------------------
 Cartesian Forces:  Max     0.000734926 RMS     0.000338022

 GradGradGradGradGradGradGradGradGradGradGradGradGradGradGradGradGradGrad
 Berny optimization.
 Search for a local minimum.
 Step number   1 out of a maximum of    2
 All quantities printed in internal units (Hartrees-Bohrs-Radians)
 Second derivative matrix not updated -- analytic derivatives used.
 The second derivative matrix:
                          X1        Y1        Z1        X2        Y2
           X1           0.59949
           Y1          -0.06284   0.52874
           Z1           0.09822   0.14700   0.24182
           X2          -0.29927  -0.01724  -0.08147   0.37342
           Y2           0.05760  -0.06319  -0.01932  -0.11208   0.30904
           Z2          -0.10887  -0.06719  -0.01355   0.03219   0.07457
           X3          -0.12375   0.10714   0.03368  -0.01872   0.01970
           Y3           0.11303  -0.22981  -0.06042   0.00626  -0.00137
           Z3           0.02567  -0.06201  -0.05312  -0.01576   0.02185
           X4          -0.11985  -0.09216  -0.04280  -0.02109  -0.01973
           Y4          -0.08540  -0.20361  -0.07485  -0.00465   0.01183
           Z4          -0.04785  -0.07418  -0.10057  -0.00383  -0.01758
           X5          -0.02394   0.02214  -0.01641   0.02775  -0.00581
           Y5          -0.01428  -0.03031   0.01815   0.02230  -0.02676
           Z5           0.04173   0.04557  -0.07270   0.02141   0.02226
           X6          -0.03269   0.04295   0.00877  -0.06209   0.06033
           Y6          -0.00811  -0.00182  -0.01056   0.10541  -0.22955
           Z6          -0.00890   0.01081  -0.00187   0.04746  -0.08179
                          Z2        X3        Y3        Z3        X4
           Z2           0.07804
           X3           0.01204   0.14964
           Y3           0.01207  -0.12375   0.24101
           Z3          -0.01573  -0.03425   0.06116   0.05502
           X4          -0.02405   0.01058   0.01406   0.00488   0.12346
           Y4          -0.00897  -0.01304  -0.01700  -0.01047   0.09853
           Z4           0.02273  -0.00660  -0.00705   0.00249   0.06129
           X5           0.06769  -0.01412  -0.01056   0.02540   0.00378
           Y5           0.03906   0.00758   0.00394  -0.01004  -0.00075
           Z5          -0.01659   0.00069  -0.00073   0.00089  -0.00340
           X6           0.02099  -0.00363   0.00097  -0.00594   0.00311
           Y6          -0.04954   0.00238   0.00323  -0.00050   0.00005
           Z6          -0.05490  -0.00557  -0.00504   0.01045   0.00407
                          Y4        Z4        X5        Y5        Z5
           Y4           0.20785
           Z4           0.09278   0.07906
           X5           0.00457  -0.00651   0.00574
           Y5          -0.00217   0.00212  -0.00902   0.06519
           Z5          -0.00304   0.00433  -0.06019  -0.05779   0.08533
           X6          -0.00001   0.00350   0.00078  -0.00583  -0.00025
           Y6           0.00310   0.00390  -0.00132  -0.00988  -0.00628
           Z6           0.00455  -0.00804  -0.01000   0.00849  -0.00127
                          X6        Y6        Z6
           X6           0.09451
           Y6          -0.09841   0.23492
           Z6          -0.02707   0.06297   0.05563
 ITU=  0
     Eigenvalues ---   -0.10257   0.04317   0.06816   0.07855   0.11232
     Eigenvalues ---    0.11559   0.15841   0.23224   0.32886   0.52453
     Eigenvalues ---    0.76731   0.92194
 Eigenvalue     1 is  -1.03D-01 should be greater than     0.000000 Eigenvector:
                          X5        Z5        Z2        Y5        Z3
   1                    0.69349   0.43282  -0.33333   0.22926  -0.17623
                          Y1        Z1        X1        X4        X2
   1                   -0.15925   0.15811  -0.14320  -0.11613  -0.11557
 Angle between quadratic step and forces=  28.62 degrees.
 Linear search not attempted -- first point.
 TrRot= -0.000831 -0.000295 -0.000365  0.278577  0.000531 -0.278463
 Variable       Old X    -DE/DX   Delta X   Delta X   Delta X     New X
                                 (Linear)    (Quad)   (Total)
    X1       -0.89651  -0.00027   0.00000  -0.00152  -0.00233  -0.89884
    Y1        0.14555  -0.00001   0.00000  -0.00164  -0.00203   0.14353
    Z1        0.07528   0.00056   0.00000   0.00268   0.00275   0.07803
    X2        1.61423  -0.00052   0.00000  -0.00192  -0.00225   1.61198
    Y2        0.01772  -0.00003   0.00000   0.00042   0.00046   0.01818
    Z2        0.99186  -0.00073   0.00000  -0.00419  -0.00539   0.98648
    X3       -2.03439   0.00024   0.00000   0.00132   0.00055  -2.03384
    Y3        1.80478  -0.00021   0.00000   0.00064   0.00019   1.80497
    Z3        0.53535  -0.00034   0.00000  -0.00322  -0.00281   0.53254
    X4       -1.97472  -0.00004   0.00000   0.00049  -0.00058  -1.97530
    Y4       -1.40314  -0.00016   0.00000  -0.00152  -0.00215  -1.40529
    Z4       -0.78632   0.00018   0.00000   0.00144   0.00229  -0.78403
    X5        0.85740   0.00058   0.00000   0.00702   0.00545   0.86285
    Y5        1.24637   0.00034   0.00000   0.00371   0.00334   1.24971
    Z5       -1.18332   0.00035   0.00000   0.00489   0.00390  -1.17942
    X6        2.43400   0.00000   0.00000  -0.00040  -0.00084   2.43316
    Y6       -1.81129   0.00006   0.00000   0.00016   0.00019  -1.81110
    Z6        0.36714  -0.00001   0.00000   0.00061  -0.00074   0.36640
         Item               Value     Threshold  Converged?
 Maximum Force            0.000735     0.000450     NO 
 RMS     Force            0.000338     0.000300     NO 
 Maximum Displacement     0.005450     0.001800     NO 
 RMS     Displacement     0.002658     0.001200     NO 
 Predicted change in Energy=-2.060897D-05
 GradGradGradGradGradGradGradGradGradGradGradGradGradGradGradGradGradGrad

 1\1\GINC-ANT01\Freq\RB3LYP\3-21G\C2H4\GNOVIKOV\14-Oct-2017\0\\# B3lyp/
 3-21g nosym freq\\\0,1\C,-0.4744141603,0.0770240933,0.0398354077\C,0.8
 542131733,0.0093772116,0.5248709105\H,-1.0765522322,0.9550496211,0.283
 2960252\H,-1.0449780322,-0.7425071301,-0.4161003568\H,0.453715403,0.65
 95512266,-0.6261850366\H,1.2880157442,-0.9584951093,0.1942813997\\Vers
 ion=AM64L-G09RevD.01\HF=-78.0179282\RMSD=3.906e-09\RMSF=3.380e-04\Zero
 Point=0.0452956\Thermal=0.0482492\Dipole=-0.6712927,-0.2914428,-0.6762
 594\DipoleDeriv=0.3676118,0.1070584,-0.0628613,0.0237206,0.1516827,0.1
 542133,-0.1427012,0.2020514,-0.1871305,-0.2142046,-0.1823297,0.1520389
 ,-0.2960954,-0.0089425,0.0827229,0.0222037,0.0243629,-0.236439,-0.0244
 85,0.074974,0.0234207,0.0698508,-0.0440763,-0.0466766,-0.0163703,-0.02
 3233,0.0987179,-0.1422532,-0.0860714,-0.1291855,-0.1271455,-0.0303198,
 -0.1435062,-0.0552273,-0.1216122,0.1562065,-0.075835,0.0592416,0.01469
 6,0.1087709,0.1338825,0.0176852,0.0386808,0.0458345,0.0730392,0.089165
 9,0.0271271,0.0018912,0.2208986,-0.2022267,-0.0644385,0.1534143,-0.127
 4035,0.0956059\Polar=27.1943324,-2.0164765,19.7639005,3.6612155,0.1707
 283,16.6778846\PG=C01 [X(C2H4)]\NImag=1\\0.59948687,-0.06283510,0.5287
 3772,0.09821863,0.14699812,0.24181843,-0.29926790,-0.01723932,-0.08147
 059,0.37341568,0.05759586,-0.06318752,-0.01932185,-0.11208272,0.309039
 87,-0.10886777,-0.06719202,-0.01355244,0.03219238,0.07457152,0.0780408
 1,-0.12375257,0.10713789,0.03368492,-0.01871609,0.01969582,0.01204146,
 0.14963888,0.11302865,-0.22980890,-0.06041686,0.00625954,-0.00136616,0
 .01207370,-0.12375371,0.24100857,0.02567022,-0.06201109,-0.05311762,-0
 .01575981,0.02185272,-0.01572794,-0.03424924,0.06116385,0.05501756,-0.
 11984631,-0.09215980,-0.04279754,-0.02108994,-0.01973118,-0.02404731,0
 .01057647,0.01405564,0.00487707,0.12346425,-0.08539987,-0.20361300,-0.
 07484622,-0.00464897,0.01182896,-0.00897341,-0.01304321,-0.01699539,-0
 .01046921,0.09852932,0.20785117,-0.04785463,-0.07418266,-0.10057346,-0
 .00383406,-0.01757572,0.02272950,-0.00659853,-0.00704805,0.00248837,0.
 06129007,0.09278317,0.07905699,-0.02393508,0.02214381,-0.01640539,0.02
 774628,-0.00581246,0.06769200,-0.01411672,-0.01055903,0.02540047,0.003
 78251,0.00457203,-0.00650523,0.00573982,-0.01428281,-0.03031202,0.0181
 4730,0.02230401,-0.02676296,0.03905966,0.00757845,0.00393623,-0.010040
 31,-0.00074569,-0.00217377,0.00212407,-0.00902143,0.06519146,0.0417304
 3,0.04557296,-0.07270298,0.02140846,0.02226276,-0.01658882,0.00069389,
 -0.00072837,0.00089369,-0.00339508,-0.00304407,0.00433364,-0.06018626,
 -0.05778526,0.08533177,-0.03268502,0.04295252,0.00876996,-0.06208803,0
 .06033469,0.02098924,-0.00362998,0.00096891,-0.00593871,0.00311302,-0.
 00000929,0.00350237,0.00078319,-0.00583252,-0.00025145,0.09450681,-0.0
 0810672,-0.00181627,-0.01056049,0.10540747,-0.22955219,-0.04953945,0.0
 0238476,0.00322565,-0.00049597,0.00005170,0.00310203,0.00389919,-0.001
 32292,-0.00987894,-0.00627802,-0.09841430,0.23491972,-0.00889689,0.010
 81468,-0.00187193,0.04746361,-0.08178943,-0.05490111,-0.00557251,-0.00
 504427,0.01044594,0.00407279,0.00454974,-0.00803503,-0.00999560,0.0084
 9455,-0.00126729,-0.02707140,0.06297473,0.05562942\\0.00027063,0.00000
 717,-0.00056432,0.00051762,0.00002769,0.00073493,-0.00024365,0.0002107
 7,0.00033712,0.00003878,0.00015948,-0.00017516,-0.00058385,-0.00034104
 ,-0.00034582,0.00000047,-0.00006407,0.00001325\\\@


 CONTRAIWISE...CONTINUED TWEEDLEDEE, IF IT WAS SO, IT MIGHT BE,
 AND IF IT WERE SO, IT WOULD BE.....
 BUT AS IT ISN'T, IT AIN'T....
 THAT'S LOGIC.....
 ALICE THROUGH THE LOOKING GLASS
 Job cpu time:       0 days  0 hours  0 minutes 14.1 seconds.
 File lengths (MBytes):  RWF=     18 Int=      0 D2E=      0 Chk=      1 Scr=      5
 Normal termination of Gaussian 09 at Sat Oct 14 10:58:57 2017.
