                                                                        
Freq      RB3LYP                                                      3-21G               
Number of atoms                            I                6
Info1-9                                    I   N=           9
          19          19           0           0           0         100
           6          18        -502
Charge                                     I                0
Multiplicity                               I                1
Number of electrons                        I               16
Number of alpha electrons                  I                8
Number of beta electrons                   I                8
Number of basis functions                  I               26
Number of independent functions            I               26
Number of point charges in /Mol/           I                0
Number of translation vectors              I                0
Atomic numbers                             I   N=           6
           6           6           1           1           1           1
Nuclear charges                            R   N=           6
  6.00000000E+00  6.00000000E+00  1.00000000E+00  1.00000000E+00  1.00000000E+00
  1.00000000E+00
Current cartesian coordinates              R   N=          18
 -6.22087980E-01  4.27163262E-01 -1.20616901E-01  1.43046351E+00 -4.70913364E-01
  1.62812968E+00 -1.93696195E+00  1.75677960E+00  7.51362666E-01 -1.68301202E+00
 -1.21304577E+00 -8.69796252E-01  2.27719983E-01  1.30077135E+00 -1.82114987E+00
  2.58387825E+00 -1.80075524E+00  4.32067559E-01
Force Field                                I                0
Int Atom Types                             I   N=           6
           0           0           0           0           0           0
MM charges                                 R   N=           6
  0.00000000E+00  0.00000000E+00  0.00000000E+00  0.00000000E+00  0.00000000E+00
  0.00000000E+00
Integer atomic weights                     I   N=           6
          12          12           1           1           1           1
Real atomic weights                        R   N=           6
  1.20000000E+01  1.20000000E+01  1.00782504E+00  1.00782504E+00  1.00782504E+00
  1.00782504E+00
Atom fragment info                         I   N=           6
           0           0           0           0           0           0
Atom residue num                           I   N=           6
           0           0           0           0           0           0
Nuclear spins                              I   N=           6
           0           0           1           1           1           1
Nuclear ZEff                               R   N=           6
 -3.60000000E+00 -3.60000000E+00 -1.00000000E+00 -1.00000000E+00 -1.00000000E+00
 -1.00000000E+00
Nuclear ZNuc                               R   N=           6
  6.00000000E+00  6.00000000E+00  1.00000000E+00  1.00000000E+00  1.00000000E+00
  1.00000000E+00
Nuclear QMom                               R   N=           6
  0.00000000E+00  0.00000000E+00  0.00000000E+00  0.00000000E+00  0.00000000E+00
  0.00000000E+00
Nuclear GFac                               R   N=           6
  0.00000000E+00  0.00000000E+00  2.79284600E+00  2.79284600E+00  2.79284600E+00
  2.79284600E+00
MicOpt                                     I   N=           6
          -1          -1          -1          -1          -1          -1
Number of contracted shells                I               14
Number of primitive shells                 I               24
Pure/Cartesian d shells                    I                1
Pure/Cartesian f shells                    I                0
Highest angular momentum                   I                1
Largest degree of contraction              I                3
Shell types                                I   N=          14
           0          -1          -1           0          -1          -1
           0           0           0           0           0           0
           0           0
Number of primitives per shell             I   N=          14
           3           2           1           3           2           1
           2           1           2           1           2           1
           2           1
Shell to atom map                          I   N=          14
           1           1           1           2           2           2
           3           3           4           4           5           5
           6           6
Primitive exponents                        R   N=          24
  1.72256000E+02  2.59109000E+01  5.53335000E+00  3.66498000E+00  7.70545000E-01
  1.95857000E-01  1.72256000E+02  2.59109000E+01  5.53335000E+00  3.66498000E+00
  7.70545000E-01  1.95857000E-01  5.44717800E+00  8.24547240E-01  1.83191580E-01
  5.44717800E+00  8.24547240E-01  1.83191580E-01  5.44717800E+00  8.24547240E-01
  1.83191580E-01  5.44717800E+00  8.24547240E-01  1.83191580E-01
Contraction coefficients                   R   N=          24
  6.17669074E-02  3.58794043E-01  7.00713084E-01 -3.95895162E-01  1.21583436E+00
  1.00000000E+00  6.17669074E-02  3.58794043E-01  7.00713084E-01 -3.95895162E-01
  1.21583436E+00  1.00000000E+00  1.56284979E-01  9.04690877E-01  1.00000000E+00
  1.56284979E-01  9.04690877E-01  1.00000000E+00  1.56284979E-01  9.04690877E-01
  1.00000000E+00  1.56284979E-01  9.04690877E-01  1.00000000E+00
P(S=P) Contraction coefficients            R   N=          24
  0.00000000E+00  0.00000000E+00  0.00000000E+00  2.36459947E-01  8.60618806E-01
  1.00000000E+00  0.00000000E+00  0.00000000E+00  0.00000000E+00  2.36459947E-01
  8.60618806E-01  1.00000000E+00  0.00000000E+00  0.00000000E+00  0.00000000E+00
  0.00000000E+00  0.00000000E+00  0.00000000E+00  0.00000000E+00  0.00000000E+00
  0.00000000E+00  0.00000000E+00  0.00000000E+00  0.00000000E+00
Coordinates of each shell                  R   N=          42
 -6.22087980E-01  4.27163262E-01 -1.20616901E-01 -6.22087980E-01  4.27163262E-01
 -1.20616901E-01 -6.22087980E-01  4.27163262E-01 -1.20616901E-01  1.43046351E+00
 -4.70913364E-01  1.62812968E+00  1.43046351E+00 -4.70913364E-01  1.62812968E+00
  1.43046351E+00 -4.70913364E-01  1.62812968E+00 -1.93696195E+00  1.75677960E+00
  7.51362666E-01 -1.93696195E+00  1.75677960E+00  7.51362666E-01 -1.68301202E+00
 -1.21304577E+00 -8.69796252E-01 -1.68301202E+00 -1.21304577E+00 -8.69796252E-01
  2.27719983E-01  1.30077135E+00 -1.82114987E+00  2.27719983E-01  1.30077135E+00
 -1.82114987E+00  2.58387825E+00 -1.80075524E+00  4.32067559E-01  2.58387825E+00
 -1.80075524E+00  4.32067559E-01
Constraint Structure                       R   N=          18
 -6.22087980E-01  4.27163262E-01 -1.20616901E-01  1.43046351E+00 -4.70913364E-01
  1.62812968E+00 -1.93696195E+00  1.75677960E+00  7.51362666E-01 -1.68301202E+00
 -1.21304577E+00 -8.69796252E-01  2.27719983E-01  1.30077135E+00 -1.82114987E+00
  2.58387825E+00 -1.80075524E+00  4.32067559E-01
Num ILSW                                   I              100
ILSW                                       I   N=         100
           0           1           0           0           2           0
           0           0           0           0         402          -1
           0           0           0           0           2           0
           0           0           1           0           1           0
           1           1           0           0           0           0
           0           0      100000           0          -1           0
           0           0           0           0           0           0
           0           0           0           1           0           0
           0           0           1           0           0           0
           0           0           4          41           0           0
           0           0           5           0           0           0
           0           0           0           0           0           0
           0           0           0           0           0           0
           0           0           0           0           0           0
           0           0           0           0           0           0
           0           0           0           0           0           0
           0           0           0           0
Num RLSW                                   I               41
RLSW                                       R   N=          41
  8.00000000E-01  7.20000000E-01  1.00000000E+00  8.10000000E-01  2.00000000E-01
  0.00000000E+00  0.00000000E+00  1.00000000E+00  0.00000000E+00  0.00000000E+00
  0.00000000E+00  0.00000000E+00  1.00000000E+00  0.00000000E+00  0.00000000E+00
  0.00000000E+00  0.00000000E+00  1.00000000E+00  0.00000000E+00  0.00000000E+00
  0.00000000E+00  0.00000000E+00  1.00000000E+00  0.00000000E+00  0.00000000E+00
  0.00000000E+00  0.00000000E+00  1.00000000E+00  0.00000000E+00  0.00000000E+00
  0.00000000E+00  0.00000000E+00  1.00000000E+00  0.00000000E+00  0.00000000E+00
  0.00000000E+00  0.00000000E+00  0.00000000E+00  1.00000000E+00  1.00000000E+00
  0.00000000E+00
MxBond                                     I                4
NBond                                      I   N=           6
           4           2           1           1           1           1
IBond                                      I   N=          24
           2           3           4           5           1           6
           0           0           1           0           0           0
           1           0           0           0           1           0
           0           0           2           0           0           0
RBond                                      R   N=          24
  1.00000000E+00  1.00000000E+00  1.00000000E+00  1.00000000E+00  1.00000000E+00
  1.00000000E+00  0.00000000E+00  0.00000000E+00  1.00000000E+00  0.00000000E+00
  0.00000000E+00  0.00000000E+00  1.00000000E+00  0.00000000E+00  0.00000000E+00
  0.00000000E+00  1.00000000E+00  0.00000000E+00  0.00000000E+00  0.00000000E+00
  1.00000000E+00  0.00000000E+00  0.00000000E+00  0.00000000E+00
Virial Ratio                               R      2.008642654239117E+00
SCF Energy                                 R     -7.803012766827820E+01
Total Energy                               R     -7.803012766827820E+01
RMS Force                                  R      9.071783086880700E-07
RMS Density                                R      2.626686592557131E-09
External E-field                           R   N=          35
  0.00000000E+00  0.00000000E+00  0.00000000E+00  0.00000000E+00  0.00000000E+00
  0.00000000E+00  0.00000000E+00  0.00000000E+00  0.00000000E+00  0.00000000E+00
  0.00000000E+00  0.00000000E+00  0.00000000E+00  0.00000000E+00  0.00000000E+00
  0.00000000E+00  0.00000000E+00  0.00000000E+00  0.00000000E+00  0.00000000E+00
  0.00000000E+00  0.00000000E+00  0.00000000E+00  0.00000000E+00  0.00000000E+00
  0.00000000E+00  0.00000000E+00  0.00000000E+00  0.00000000E+00  0.00000000E+00
  0.00000000E+00  0.00000000E+00  0.00000000E+00  0.00000000E+00  0.00000000E+00
IOpCl                                      I                0
IROHF                                      I                0
Alpha Orbital Energies                     R   N=          26
 -1.01613565E+01 -1.01338010E+01 -7.73078033E-01 -5.83832252E-01 -4.39957064E-01
 -4.29554909E-01 -3.72392524E-01 -2.01271474E-01 -8.84501911E-02  1.18120552E-01
  1.65873486E-01  1.68150572E-01  1.91807802E-01  2.62697115E-01  7.16016564E-01
  7.16827460E-01  7.31391388E-01  7.70643390E-01  7.95114952E-01  8.43658932E-01
  9.39655628E-01  1.00327332E+00  1.05753424E+00  1.08209831E+00  1.46331967E+00
  1.86355477E+00
Alpha MO coefficients                      R   N=         676
 -1.64164625E-02 -4.26325481E-03 -7.79714634E-04  2.86525502E-04 -8.09270823E-04
  2.20233457E-02  1.12483159E-02 -5.56434399E-03  7.89029111E-03  9.85538811E-01
  1.04079340E-01 -7.55511422E-04 -1.24708214E-03 -4.80893362E-03 -6.58509588E-02
  6.40247110E-03  1.83006442E-03  1.76828425E-02 -9.60676160E-04  1.84643737E-03
 -1.52305481E-03  1.87984061E-03 -1.52312750E-03  1.88189686E-03 -5.79023421E-04
  1.65249034E-02  9.86086135E-01  1.11818664E-01  6.61117356E-05 -2.62085064E-04
 -5.61328058E-04 -8.99600841E-02 -4.14994797E-03  2.69907999E-03 -1.19407343E-03
  1.60531783E-02 -7.81152004E-04  2.87559805E-04 -2.21723675E-04 -8.52106823E-06
  2.04872106E-02 -9.37222178E-03  4.17577070E-03 -7.78729259E-03 -5.66094492E-04
  1.52895194E-02  1.04803272E-04  1.60048609E-02  1.05420763E-04  1.60059390E-02
 -1.30593632E-03  1.66440820E-03 -1.84950119E-01  1.77443683E-01  4.85944172E-02
 -2.95845023E-02  1.93853527E-02  5.06613307E-01  2.16389649E-02 -2.00053980E-02
 -9.44342485E-03 -1.25232534E-01  1.36115091E-01 -6.24133987E-02  7.33461626E-03
 -1.05916077E-01  2.69729355E-01 -5.37245779E-03 -1.75174999E-02 -5.70364586E-02
  8.19449568E-02  2.91520870E-03  9.60683887E-02 -7.93150488E-05  9.60753937E-02
 -8.10165271E-05  7.50393794E-02 -1.49168794E-03  1.02292030E-01 -9.44774543E-02
  1.46506194E-01 -7.38301554E-02  9.91886041E-02 -4.01095137E-01  6.14010863E-02
 -3.15228195E-02  4.00600747E-02 -1.56202843E-01  1.61218136E-01  4.92403554E-02
 -7.47999422E-02 -9.86481746E-02  5.09795533E-01 -5.15666348E-04 -4.01273929E-02
 -1.06984234E-01 -1.16768440E-01 -4.86089231E-02 -9.73068325E-02 -4.70065961E-02
 -9.73125790E-02 -4.70120264E-02  1.72521107E-01  8.30167800E-02 -1.18295752E-02
  1.25598024E-02 -3.70505376E-02  1.53189612E-01  3.29580654E-01  5.25557171E-02
 -4.59424054E-02  1.34253154E-01  2.61849714E-01 -4.11315668E-02  4.60061767E-02
 -1.32695329E-01  1.19217386E-01  4.82926353E-02  1.30731423E-01 -5.54829099E-02
  5.36674675E-02  3.02389228E-02  1.78376442E-01  1.26527903E-01 -1.39927421E-01
 -1.23739168E-01 -1.39684057E-01 -1.23527330E-01 -8.58027851E-02 -1.05414132E-01
  1.58413298E-05 -1.69347138E-05  2.18683258E-01  2.87556460E-01 -1.09057357E-01
 -5.69304614E-05  1.73512544E-01  2.28140518E-01 -8.65245375E-02  1.86957358E-05
 -2.11445297E-05  5.91699215E-02  7.77029142E-02 -2.94687280E-02 -6.32349875E-05
  4.46004840E-02  5.86014431E-02 -2.22185720E-02 -1.12575592E-04 -8.82484555E-05
 -2.13999817E-01 -1.98102923E-01  2.14159773E-01  1.98256059E-01  3.66720412E-05
  4.20941607E-05 -2.20542321E-02  1.66968741E-02  2.76383692E-01 -1.88411452E-01
  5.73239449E-02  1.40100514E-01  2.41434120E-01 -1.63020818E-01  5.42059203E-02
  1.09658085E-02 -1.39530270E-03 -2.72894034E-01  1.86035064E-01 -5.65592243E-02
 -9.63241969E-02 -1.36691614E-01  9.92326991E-02 -1.23639798E-02 -1.83097618E-01
 -1.85810049E-01  9.36139380E-03 -6.61549403E-03  9.33148222E-03 -6.64665389E-03
 -2.00438564E-01 -2.44828961E-01  2.89633710E-02 -3.21928962E-02 -6.03048430E-02
 -4.99858900E-03 -1.34257545E-01 -1.43702840E-01 -8.91856566E-02  4.83922206E-02
 -5.12505964E-02 -1.16347887E-01  9.55061171E-02  5.60321399E-02  1.07804597E-01
  3.97072153E-01  6.05785617E-01  6.27388008E-02  9.68787432E-02  3.81679718E-01
 -8.48009332E-02 -1.43878325E-01  6.51766297E-02  1.48339958E-01  6.51403367E-02
  1.48286715E-01 -1.23313191E-01 -1.93944177E-01 -9.35943329E-07  2.01806412E-06
 -3.42018559E-02 -4.49880212E-02  1.70453677E-02 -1.29693255E-06  1.44267822E-02
  1.89695919E-02 -7.17574516E-03  5.71559858E-07  1.42851108E-07  2.77903502E-01
  3.65570363E-01 -1.38465399E-01 -8.16766870E-06  3.68548837E-01  4.84812556E-01
 -1.83627485E-01  2.31249575E-05  4.86421045E-05  1.14372304E-01  2.39801431E-01
 -1.14403825E-01 -2.39866329E-01  3.20920341E-06  8.94325287E-06 -1.26114681E-01
  6.22644298E-02 -6.28690718E-02 -1.79247491E-02 -1.73617767E-01  1.61782496E+00
 -2.96962877E-01  1.06757638E-02 -5.68241913E-01 -5.88634459E-02  5.16721519E-02
  1.01354902E-01 -1.07545324E-01 -8.05267751E-02  6.74894450E-01  2.67660843E-01
 -2.93226951E-01 -2.36950483E-01  2.62127687E-03 -4.62983209E-01 -3.70481169E-02
 -1.03152230E+00 -3.70408901E-02 -1.03148922E+00 -3.84881468E-02 -8.86656832E-01
 -1.18582538E-01  5.07088957E-02 -1.03754033E-01  1.10801306E-01  8.11510896E-02
  1.60670410E+00 -2.29805582E-01  3.08830957E-01  3.43382446E-01  8.58381177E-02
 -3.43985095E-02 -7.88471970E-02  1.18426960E-01  1.55027914E-01 -1.10210366E+00
 -8.69922249E-02  2.50150720E-01  4.88539210E-01 -8.47003729E-02 -1.37506129E+00
  1.19454133E-02 -2.66634617E-01  1.15573706E-02 -2.73048132E-01  9.04841240E-02
  1.18325791E+00  2.81582181E-04 -1.29647765E-04  2.22987777E-01  2.92640234E-01
 -1.11193900E-01 -3.74937412E-03  7.55930287E-01  9.92460056E-01 -3.77236944E-01
 -1.93390391E-04  9.31205605E-05 -4.39685085E-02 -5.82442553E-02  2.16403454E-02
  2.37448762E-03 -1.89053392E-01 -2.49237504E-01  9.32383106E-02  2.44964444E-04
  3.83019284E-03  8.18344044E-02  1.32468175E+00 -8.19285282E-02 -1.32408511E+00
 -1.98803770E-04 -2.47598859E-03 -2.84714998E-02 -3.63077807E-03  1.31764310E-01
 -1.81566279E-01 -2.14510265E-01  4.61079654E-01  7.06152611E-01 -8.18987095E-01
 -7.43628694E-01  5.83164110E-02 -1.73428732E-02 -6.14131606E-02  1.08279718E-01
  1.62553403E-01 -9.06380243E-01 -1.71161914E-01  3.78408850E-01  6.55215632E-01
  7.30474403E-02  1.32176643E+00 -3.70119472E-02 -7.88786512E-01 -3.69562514E-02
 -7.87553052E-01  9.66059354E-03  9.55369626E-01  8.55110721E-02 -3.45329258E-02
 -1.90788583E-01  7.44706086E-02 -1.86246689E-01 -1.19298788E+00 -1.08349754E+00
  4.22662887E-01 -1.05855025E+00 -9.22957252E-02  4.54960522E-02 -3.07629084E-01
  1.81719851E-01 -1.37677245E-01  1.32951317E+00 -1.14143094E+00  6.16207795E-01
 -6.64195286E-01 -6.16164606E-02 -1.13373361E-01 -5.50436062E-02 -2.03175480E-01
 -5.50476177E-02 -2.02847059E-01  6.33081846E-02  3.88018214E-01 -1.42463073E-05
  7.48482262E-05 -2.83979399E-01 -3.74028396E-01  1.43155356E-01  7.70695799E-04
  4.90344675E-01  6.45295331E-01 -2.46673242E-01 -2.29431745E-05  9.00391917E-05
 -4.54491574E-01 -5.95883444E-01  2.26023852E-01  6.90273590E-04  2.80205171E-01
  3.66029786E-01 -1.38984493E-01  8.23525139E-04 -2.73778697E-04  4.02804298E-01
  2.09200657E-02 -4.04205924E-01 -2.13482287E-02 -1.05675800E-03  1.14775062E-04
  1.03649289E-02 -3.26125629E-02 -3.30887380E-01  1.56197524E-02 -6.19153865E-01
 -3.02479903E-01  4.39789150E-01  1.77263795E-02  9.22999117E-01  4.20923032E-03
 -1.75497740E-02  3.76709591E-01 -3.06556390E-01 -4.67043555E-02 -4.07210619E-01
 -4.76417874E-01  3.86056189E-01  5.88576930E-02 -2.15400903E-01  1.33650105E-01
  2.86273650E-01  8.70608821E-02  2.84322280E-01  8.69150281E-02  4.06357952E-01
 -4.10161660E-02  2.15888528E-02 -4.61292621E-02 -6.84058580E-01  4.95300359E-01
 -6.58866757E-02 -1.79622868E-01  1.05048089E+00 -8.37824994E-01 -1.02588884E-01
 -4.47727882E-02  6.87998280E-02  3.22010903E-02  6.55189881E-02  2.36447492E-01
 -2.91835192E-01 -8.63796414E-03 -4.75529429E-02 -1.42061462E-01  5.49373975E-01
  2.13905401E-01 -8.74198932E-02  2.55267202E-02 -8.70691945E-02  2.56051822E-02
 -2.77055845E-01 -1.33408063E-02  3.37227637E-02 -1.11049525E-01 -2.53031765E-01
  9.65871311E-02 -2.52662378E-01  6.38622258E-01  5.85903685E-01 -2.38491909E-01
  5.45797617E-01  2.06888682E-02 -3.75906090E-02 -5.07377972E-01  5.34715963E-02
 -8.78239485E-01 -6.94023692E-01  8.37135335E-01 -2.27787984E-01  1.08000244E+00
  3.31381440E-02  7.51999174E-02  8.74087580E-02  1.06359175E-01  8.73244192E-02
  1.06343224E-01 -1.96161017E-01  1.75386890E-01 -1.13542912E-05  4.32415473E-05
 -3.90044630E-01 -5.13184601E-01  1.94478457E-01 -1.22930051E-04  8.18670600E-01
  1.07703620E+00 -4.08091706E-01  2.43142561E-06  3.38071641E-05  4.21587894E-01
  5.54165426E-01 -2.09808815E-01  6.38422192E-05 -6.13172210E-01 -8.05908056E-01
  3.05218614E-01  3.76694259E-05  1.38881652E-05  2.85722805E-01  2.37706952E-01
 -2.85742285E-01 -2.37902260E-01  1.55903183E-04  1.20303314E-05  2.99794035E-02
 -3.90207099E-02  6.49806470E-02 -2.69293461E-01 -5.80294046E-01  2.06043912E-02
 -2.02782925E-01  6.54863970E-01  1.32115018E+00 -3.38038566E-02  8.61641701E-02
 -4.67779924E-01  5.24206324E-01  4.44817339E-01  9.73050089E-02  8.93721437E-01
 -9.94986211E-01 -8.32625273E-01  3.26841721E-02 -4.63494564E-01  1.78918106E-01
  3.38512232E-01  1.78714805E-01  3.38243979E-01 -9.73785977E-02 -6.54949142E-01
  6.35239315E-02 -8.89290152E-02  1.78726714E-02  1.69001000E-01  4.82206847E-01
  1.85601142E-01  3.17925311E-01 -4.62481436E-01 -5.82576970E-01  7.18979533E-03
  2.19275460E-01 -2.41844402E-01  1.97265746E-01  3.55081830E-02 -1.21539480E-01
  1.45956891E-01 -2.86768423E-02  2.16950351E-01  3.09901769E-01  3.25306718E-01
  5.71677534E-01 -5.58926982E-01  5.71908436E-01 -5.58909194E-01  7.56242604E-01
 -6.08227084E-01  4.80128703E-06  2.29742790E-05  4.30633690E-01  5.66429257E-01
 -2.14409585E-01 -6.02377470E-05 -5.35158471E-01 -7.03991197E-01  2.66444134E-01
  9.20558564E-06 -2.58422335E-05  8.85069004E-02  1.16427650E-01 -4.40741207E-02
  4.94891518E-05 -7.28140528E-02 -9.56769460E-02  3.62792199E-02  1.68604359E-04
 -1.69727127E-04  7.87200405E-01 -1.23835440E+00 -7.87229800E-01  1.23846925E+00
  1.29488154E-04 -6.34550388E-05 -3.72874706E-02  5.24311063E-02 -3.95205728E-01
  4.17556001E-01  3.09309454E-01  5.79406735E-02  4.76211161E-01 -4.52691752E-01
 -2.39789686E-01 -6.25610205E-03 -3.50590744E-02 -1.37892756E-01  1.62635940E-01
  1.52606925E-01 -3.76166538E-03  4.14159882E-01 -3.93755184E-01 -2.08210005E-01
 -1.13641496E+00  1.45024211E+00  1.50661986E-01 -3.73315359E-01  1.50386936E-01
 -3.73102410E-01 -1.53014606E-01 -2.85061646E-01  6.65025999E-02 -2.39069693E-01
  1.83936838E-01 -8.01596991E-02  1.57470457E-01  6.88779884E-02 -5.74918685E-01
  3.65053050E-01 -1.89866611E-01 -5.94032737E-02  3.39076166E-01  2.76390376E-01
 -2.33248465E-01 -6.10995383E-02 -1.70968608E-01 -5.60248197E-01  3.29628200E-01
 -2.54275815E-01  8.02906510E-02 -3.10508673E-01  5.76991645E-01 -5.29552143E-01
  5.76876830E-01 -5.29369020E-01 -9.23591085E-01  1.21062277E+00  3.38971464E-02
 -7.60693889E-01  1.27820156E-02  1.23916578E-02  5.85515440E-02  5.66376725E-01
 -6.09715964E-01  2.84459217E-01 -4.73349222E-01  2.29052097E-02 -1.61806102E+00
  3.65464481E-02  3.81874346E-02  1.74205732E-01  2.55457310E+00 -2.07351777E-01
 -1.63005037E-01 -8.46549432E-01  7.38951953E-02 -4.50905546E-01  1.58613643E-01
 -5.32253958E-01  1.58602170E-01 -5.32420845E-01 -1.20305224E-01 -7.58596993E-01
 -6.43888050E-02 -1.93380333E+00 -9.71204066E-03  8.48697258E-03  2.95485673E-03
  4.63421314E+00  6.28058437E-01 -3.53589352E-01  3.26614259E-01  3.57758629E-02
  8.18300646E-01  3.04283418E-02 -1.82526891E-02  1.29148134E-02 -2.53343105E+00
  7.68293526E-01 -2.28230871E-01  9.39585507E-01 -2.27026128E-01 -5.64354567E-01
 -3.47958022E-01 -5.70408962E-01 -3.48029116E-01 -5.70400531E-01  2.54311283E-01
  1.40284898E-01
Total SCF Density                          R   N=         351
  2.03754156E+00  1.32802145E-01  1.08813512E-01 -2.64688089E-03  1.75807438E-03
  3.06091647E-01 -2.81680573E-04  1.25874579E-03 -1.36376901E-02  2.96011843E-01
 -6.06533099E-03  6.85997883E-03  6.70796792E-03  2.20418970E-03  3.04086357E-01
 -4.63341209E-01  2.50524425E-01  2.25206882E-02 -5.97741892E-03  2.94426923E-02
  9.38305926E-01 -1.87193693E-02  7.69811400E-03  2.43582774E-01 -1.47110328E-02
 -3.49550062E-03  6.23456559E-02  2.05687816E-01  1.32813936E-02 -5.68720047E-03
 -1.72882849E-02  2.39118895E-01  2.65898244E-05 -4.12146469E-02 -2.53991459E-02
  2.00843501E-01 -2.48280509E-03  4.35225043E-04 -1.02938572E-02  5.19888430E-03
  2.19019075E-01  1.63097653E-02 -1.40720551E-02  5.95311832E-03  1.66748688E-01
  7.41824305E-03 -1.29171355E-02 -3.63250342E-02  1.54710715E-02 -3.20736405E-02
  7.11251725E-02  2.72702308E-02 -2.18940648E-02 -3.06490080E-03  2.05395171E+00
 -1.78187040E-02  1.17402660E-02  4.45967748E-02 -1.81450956E-02  4.16170033E-02
 -9.69148038E-03  6.09272929E-03  5.26907695E-03  2.61466431E-02  9.46267550E-02
  1.33183317E-01  5.21764754E-02 -4.74390692E-02 -1.13529766E-01  9.20683622E-02
 -1.39356404E-01 -2.09347744E-01 -1.05713939E-01  8.51692173E-02 -1.09948746E-01
 -9.33583361E-03 -2.01939770E-03  2.10081165E-01 -2.31913562E-02  1.89612120E-02
  9.37798018E-02  2.06440676E-02  3.94647373E-02  1.01086203E-01  7.77173870E-02
  2.16786451E-02  5.19553026E-02 -1.17442669E-02  8.65827761E-03 -1.20178655E-01
  1.44263673E-01  4.34899645E-02 -4.51495625E-02 -1.34813512E-01  3.60218417E-02
 -9.85122583E-02 -1.53281947E-01 -1.29606835E-01  6.69025187E-02 -2.24208502E-02
 -4.97437794E-02  1.88059285E-02  6.25766995E-02  8.47194865E-02  3.70077257E-01
  8.33363787E-02 -3.43983332E-02  3.96730044E-02 -2.10266174E-02  2.41539371E-02
 -3.29597627E-01 -9.39749870E-02  8.30206365E-02  3.06009458E-02 -5.09791064E-01
  3.52075762E-01  1.02404004E-01  5.37812101E-02  3.47522547E-01  1.46149352E+00
 -5.83446839E-03 -1.39591012E-02 -6.01919343E-02  5.99354317E-02 -7.91283604E-02
 -6.52311803E-02 -5.66933293E-02  5.62177641E-02 -5.78406615E-02  7.94513476E-04
  6.97688915E-03  1.02242870E-01 -4.36431628E-02  5.84769138E-02  8.31823590E-02
  5.56925407E-02  6.41255319E-03  7.06040504E-04  5.13589461E-02  1.87439525E-02
 -6.90079842E-04  1.93659054E-02  4.03615357E-02  2.14040657E-02  1.59272541E-02
 -4.11478801E-03  5.83079848E-03 -5.23768199E-02  8.54523359E-02  7.90504056E-02
  6.18496932E-02 -1.55256222E-02  5.49696046E-02  5.21075628E-03 -2.61459131E-02
 -1.01746690E-01  1.65160313E-02 -1.02580198E-01 -7.97695167E-02 -9.96836635E-02
  4.77413985E-02 -2.79787294E-02 -9.26244171E-03  2.93936531E-02  3.54189028E-02
  9.65780013E-02  3.41757326E-01  3.30226305E-01  4.70305399E-02  8.27250474E-02
  3.24624883E-01 -5.63416401E-02  5.48532001E-02 -1.30498742E-01  1.36822447E-01
  9.93970353E-02  1.68576400E-01 -1.00525047E-01  1.03424563E-01  7.13603739E-02
  1.50864154E-02 -1.48158000E-02  2.13493367E-02 -2.52221019E-02 -2.37086284E-02
 -9.55768924E-02  1.88497154E-02 -2.71444870E-02 -3.38012311E-02  1.85770383E-01
  1.59378429E-02  1.98601888E-02 -1.08731614E-01  1.17168790E-01  9.12022863E-02
  4.18646292E-02 -8.16431028E-02  8.35998307E-02  5.69245631E-02  3.75820864E-02
 -2.98410709E-02  4.65545861E-02 -6.26976536E-02 -7.20608663E-02 -1.53045764E-01
  1.84515580E-02 -4.72504331E-02 -8.76847141E-02  1.49392893E-01  1.47688339E-01
 -4.85201133E-02  4.51249749E-02 -1.05086786E-01 -1.61440926E-01 -7.75623486E-02
  1.44519034E-01 -7.63384049E-02 -1.29651060E-01 -5.15481884E-02 -1.19411537E-04
 -5.98232994E-03 -7.56703318E-03 -3.31145133E-02  4.86609360E-02 -6.57944958E-03
  1.10377111E-03 -2.11752405E-02  6.03750353E-02 -2.58813231E-02 -4.75879069E-02
  1.76822639E-01  3.37210974E-02 -4.56236273E-04 -1.12804484E-01 -1.43894383E-01
 -8.82940022E-02 -2.26401864E-02 -9.28974325E-02 -1.04069217E-01 -5.02160590E-02
 -5.56724238E-03  2.16413077E-03  2.50170406E-02 -2.37488060E-02  1.27548647E-01
  1.01108668E-01  1.62551538E-02 -5.15491026E-03  1.24604134E-01 -5.58928310E-02
 -6.64395364E-02  1.47760236E-01  1.58147947E-01 -4.85156354E-02  4.51216350E-02
  8.21446895E-02  8.48858161E-02 -1.70784392E-01  1.44509506E-01  7.22129740E-02
  6.57817128E-02 -1.25513478E-01 -1.15715455E-04 -5.98485479E-03  4.30475373E-02
  3.34640172E-02  2.34240165E-02 -6.61022253E-03  3.92725575E-02  2.90196730E-02
  4.13370174E-02 -2.58713044E-02 -4.75797135E-02 -6.50044277E-03 -2.19491375E-02
  1.76817869E-01  3.37285107E-02 -4.61306046E-04  6.05214035E-02  8.41348688E-02
 -1.74596516E-01 -2.26539496E-02  4.46233608E-02  7.68441501E-02 -1.18692968E-01
 -5.55193211E-03  2.15498996E-03  7.18765955E-02  3.78759080E-02  1.04171372E-01
  1.01048742E-01  5.15891196E-02  4.13062556E-02  1.06965424E-01 -5.58850730E-02
 -6.64284263E-02 -2.19473477E-02  1.04094523E-03  1.47753187E-01  1.58134926E-01
  8.70939177E-03 -7.16441198E-03 -3.17044759E-02  2.05813526E-02 -9.29829202E-03
 -9.18944352E-02 -4.24618535E-02  1.65149683E-02 -4.16322391E-02 -4.25176231E-02
  4.50466568E-02  1.25976769E-01 -1.46323673E-01 -1.33472562E-01  8.31815817E-02
  4.78807920E-02 -8.93659867E-02 -1.39840825E-01  3.57141430E-02  7.18815983E-02
 -1.49860661E-02 -2.89878893E-02 -1.49764171E-02 -2.89716832E-02  1.96280723E-01
  2.23341097E-02 -1.43209551E-02 -7.99577865E-02  4.97621388E-02 -2.91040954E-02
 -9.16191686E-02 -6.34374630E-02  2.74194257E-02 -5.49391657E-02  5.54962005E-02
 -1.62631534E-02  1.48209160E-01 -1.70520680E-01 -1.52730808E-01 -1.33642864E-01
  5.44084141E-02 -1.04013748E-01 -1.65406407E-01  6.52761016E-02  1.12148935E-01
 -1.68752931E-02 -3.59180075E-02 -1.68628065E-02 -3.58942152E-02  1.92464676E-01
  2.31675117E-01
Mulliken Charges                           R   N=           6
 -6.97833205E-01 -1.24754808E-01  2.21932382E-01  2.29666683E-01  2.29686100E-01
  1.41302848E-01
ONIOM Charges                              I   N=          16
           0           0           0           0           0           0
           0           0           0           0           0           0
           0           0           0           0
ONIOM Multiplicities                       I   N=          16
           1           0           0           0           0           0
           0           0           0           0           0           0
           0           0           0           0
Atom Layers                                I   N=           6
           1           1           1           1           1           1
Atom Modifiers                             I   N=           6
           0           0           0           0           0           0
Force Field                                I                0
Int Atom Modified Types                    I   N=           6
           0           0           0           0           0           0
Link Atoms                                 I   N=           6
           0           0           0           0           0           0
Atom Modified MM Charges                   R   N=           6
  0.00000000E+00  0.00000000E+00  0.00000000E+00  0.00000000E+00  0.00000000E+00
  0.00000000E+00
Link Distances                             R   N=          24