 Entering Gaussian System, Link 0=/Johnny/gnovikov/gauss/g09/g09
 Initial command:
 /Johnny/gnovikov/gauss/g09/l1.exe "/Johnny/gnovikov/gauss/scr/Gau-8950.inp" -scrdir="/Johnny/gnovikov/gauss/scr/"
 Entering Link 1 = /Johnny/gnovikov/gauss/g09/l1.exe PID=      8952.
  
 Copyright (c) 1988,1990,1992,1993,1995,1998,2003,2009,2013,
            Gaussian, Inc.  All Rights Reserved.
  
 This is part of the Gaussian(R) 09 program.  It is based on
 the Gaussian(R) 03 system (copyright 2003, Gaussian, Inc.),
 the Gaussian(R) 98 system (copyright 1998, Gaussian, Inc.),
 the Gaussian(R) 94 system (copyright 1995, Gaussian, Inc.),
 the Gaussian 92(TM) system (copyright 1992, Gaussian, Inc.),
 the Gaussian 90(TM) system (copyright 1990, Gaussian, Inc.),
 the Gaussian 88(TM) system (copyright 1988, Gaussian, Inc.),
 the Gaussian 86(TM) system (copyright 1986, Carnegie Mellon
 University), and the Gaussian 82(TM) system (copyright 1983,
 Carnegie Mellon University). Gaussian is a federally registered
 trademark of Gaussian, Inc.
  
 This software contains proprietary and confidential information,
 including trade secrets, belonging to Gaussian, Inc.
  
 This software is provided under written license and may be
 used, copied, transmitted, or stored only in accord with that
 written license.
  
 The following legend is applicable only to US Government
 contracts under FAR:
  
                    RESTRICTED RIGHTS LEGEND
  
 Use, reproduction and disclosure by the US Government is
 subject to restrictions as set forth in subparagraphs (a)
 and (c) of the Commercial Computer Software - Restricted
 Rights clause in FAR 52.227-19.
  
 Gaussian, Inc.
 340 Quinnipiac St., Bldg. 40, Wallingford CT 06492
  
  
 ---------------------------------------------------------------
 Warning -- This program may not be used in any manner that
 competes with the business of Gaussian, Inc. or will provide
 assistance to any competitor of Gaussian, Inc.  The licensee
 of this program is prohibited from giving any competitor of
 Gaussian, Inc. access to this program.  By using this program,
 the user acknowledges that Gaussian, Inc. is engaged in the
 business of creating and licensing software in the field of
 computational chemistry and represents and warrants to the
 licensee that it is not a competitor of Gaussian, Inc. and that
 it will not use this program in any manner prohibited above.
 ---------------------------------------------------------------
  

 Cite this work as:
 Gaussian 09, Revision D.01,
 M. J. Frisch, G. W. Trucks, H. B. Schlegel, G. E. Scuseria, 
 M. A. Robb, J. R. Cheeseman, G. Scalmani, V. Barone, B. Mennucci, 
 G. A. Petersson, H. Nakatsuji, M. Caricato, X. Li, H. P. Hratchian, 
 A. F. Izmaylov, J. Bloino, G. Zheng, J. L. Sonnenberg, M. Hada, 
 M. Ehara, K. Toyota, R. Fukuda, J. Hasegawa, M. Ishida, T. Nakajima, 
 Y. Honda, O. Kitao, H. Nakai, T. Vreven, J. A. Montgomery, Jr., 
 J. E. Peralta, F. Ogliaro, M. Bearpark, J. J. Heyd, E. Brothers, 
 K. N. Kudin, V. N. Staroverov, T. Keith, R. Kobayashi, J. Normand, 
 K. Raghavachari, A. Rendell, J. C. Burant, S. S. Iyengar, J. Tomasi, 
 M. Cossi, N. Rega, J. M. Millam, M. Klene, J. E. Knox, J. B. Cross, 
 V. Bakken, C. Adamo, J. Jaramillo, R. Gomperts, R. E. Stratmann, 
 O. Yazyev, A. J. Austin, R. Cammi, C. Pomelli, J. W. Ochterski, 
 R. L. Martin, K. Morokuma, V. G. Zakrzewski, G. A. Voth, 
 P. Salvador, J. J. Dannenberg, S. Dapprich, A. D. Daniels, 
 O. Farkas, J. B. Foresman, J. V. Ortiz, J. Cioslowski, 
 and D. J. Fox, Gaussian, Inc., Wallingford CT, 2013.
 
 ******************************************
 Gaussian 09:  AM64L-G09RevD.01 24-Apr-2013
                14-Oct-2017 
 ******************************************
 %RWF=./tmp/14208666863779316762/rwf
 %Int=./tmp/14208666863779316762/int
 %D2E=./tmp/14208666863779316762/d2e
 %Scr=./tmp/14208666863779316762/skr
 %NoSave
 %chk=./tmp/14208666863779316762/chk
 %nproc=1
 Will use up to    1 processors via shared memory.
 %mem=1000mb
 ------------------------
 # B3lyp/3-21g nosym freq
 ------------------------
 1/10=4,30=1,38=1/1,3;
 2/12=2,15=1,17=6,18=5,40=1/2;
 3/5=5,11=2,16=1,25=1,30=1,71=2,74=-5,140=1/1,2,3;
 4//1;
 5/5=2,38=5,98=1/2;
 8/6=4,10=90,11=11/1;
 11/6=1,8=1,9=11,15=111,16=1,31=1/1,2,10;
 10/6=1,31=1/2;
 6/7=2,8=2,9=2,10=2,18=1,28=1/1;
 7/8=1,10=1,25=1,30=1/1,2,3,16;
 1/10=4,30=1/3;
 99//99;


 Symbolic Z-matrix:
 Charge =  0 Multiplicity = 1
 6                    -0.32919   0.22605  -0.06383 
 6                     0.75697  -0.2492    0.86157 
 1                    -1.025     0.92965   0.3976 
 1                    -0.89061  -0.64192  -0.46028 
 1                     0.1205    0.68834  -0.96371 
 1                     1.36733  -0.95292   0.22864 
 

 GradGradGradGradGradGradGradGradGradGradGradGradGradGradGradGradGradGrad
 Berny optimization.
 Initialization pass.
 Trust Radius=3.00D-01 FncErr=1.00D-07 GrdErr=1.00D-07
 Number of steps in this run=      2 maximum allowed number of steps=      2.
 GradGradGradGradGradGradGradGradGradGradGradGradGradGradGradGradGradGrad

                          Input orientation:                          
 ---------------------------------------------------------------------
 Center     Atomic      Atomic             Coordinates (Angstroms)
 Number     Number       Type             X           Y           Z
 ---------------------------------------------------------------------
      1          6           0       -0.329195    0.226045   -0.063828
      2          6           0        0.756969   -0.249197    0.861569
      3          1           0       -1.024996    0.929648    0.397604
      4          1           0       -0.890612   -0.641916   -0.460276
      5          1           0        0.120504    0.688339   -0.963711
      6          1           0        1.367329   -0.952919    0.228640
 ---------------------------------------------------------------------
                    Distance matrix (angstroms):
                    1          2          3          4          5
     1  C    0.000000
     2  C    1.503983   0.000000
     3  H    1.091840   2.186398   0.000000
     4  H    1.107121   2.148494   1.795503   0.000000
     5  H    1.107129   2.148420   1.795433   1.745102   0.000000
     6  H    2.086549   1.126217   3.048906   2.381098   2.381176
                    6
     6  H    0.000000
 Symmetry turned off by external request.
 Stoichiometry    C2H4
 Framework group  C1[X(C2H4)]
 Deg. of freedom    12
 Full point group                 C1      NOp   1
 Rotational constants (GHZ):    118.7233087     25.2279796     23.8161071
 Standard basis: 3-21G (6D, 7F)
    26 basis functions,    42 primitive gaussians,    26 cartesian basis functions
     8 alpha electrons        8 beta electrons
       nuclear repulsion energy        31.5698023601 Hartrees.
 NAtoms=    6 NActive=    6 NUniq=    6 SFac= 1.00D+00 NAtFMM=   60 NAOKFM=F Big=F
 Integral buffers will be    131072 words long.
 Raffenetti 2 integral format.
 Two-electron integral symmetry is turned off.
 One-electron integrals computed using PRISM.
 NBasis=    26 RedAO= T EigKep=  2.03D-02  NBF=    26
 NBsUse=    26 1.00D-06 EigRej= -1.00D+00 NBFU=    26
 ExpMin= 1.83D-01 ExpMax= 1.72D+02 ExpMxC= 1.72D+02 IAcc=1 IRadAn=         1 AccDes= 0.00D+00
 Harris functional with IExCor=  402 and IRadAn=       1 diagonalized for initial guess.
 HarFok:  IExCor=  402 AccDes= 0.00D+00 IRadAn=         1 IDoV= 1 UseB2=F ITyADJ=14
 ICtDFT=  3500011 ScaDFX=  1.000000  1.000000  1.000000  1.000000
 FoFCou: FMM=F IPFlag=           0 FMFlag=      100000 FMFlg1=           0
         NFxFlg=           0 DoJE=T BraDBF=F KetDBF=T FulRan=T
         wScrn=  0.000000 ICntrl=     500 IOpCl=  0 I1Cent=   200000004 NGrid=           0
         NMat0=    1 NMatS0=      1 NMatT0=    0 NMatD0=    1 NMtDS0=    0 NMtDT0=    0
 Symmetry not used in FoFCou.
 Keep R1 ints in memory in canonical form, NReq=942464.
 Requested convergence on RMS density matrix=1.00D-08 within 128 cycles.
 Requested convergence on MAX density matrix=1.00D-06.
 Requested convergence on             energy=1.00D-06.
 No special actions if energy rises.
 Integral accuracy reduced to 1.0D-05 until final iterations.
 Initial convergence to 1.0D-05 achieved.  Increase integral accuracy.
 SCF Done:  E(RB3LYP) =  -78.0301276683     A.U. after   12 cycles
            NFock= 12  Conv=0.26D-08     -V/T= 2.0086
 DoSCS=F DFT=T ScalE2(SS,OS)=  1.000000  1.000000
 Range of M.O.s used for correlation:     1    26
 NBasis=    26 NAE=     8 NBE=     8 NFC=     0 NFV=     0
 NROrb=     26 NOA=     8 NOB=     8 NVA=    18 NVB=    18
 Symmetrizing basis deriv contribution to polar:
 IMax=3 JMax=2 DiffMx= 0.00D+00
 G2DrvN: will do     7 centers at a time, making    1 passes.
 Calling FoFCou, ICntrl=  3107 FMM=F I1Cent=   0 AccDes= 0.00D+00.
 End of G2Drv F.D. properties file   721 does not exist.
 End of G2Drv F.D. properties file   722 does not exist.
 End of G2Drv F.D. properties file   788 does not exist.
          IDoAtm=111111
          Differentiating once with respect to electric field.
                with respect to dipole field.
          Differentiating once with respect to nuclear coordinates.
 Keep R1 ints in memory in canonical form, NReq=921684.
          There are    21 degrees of freedom in the 1st order CPHF.  IDoFFX=6 NUNeed=     3.
     18 vectors produced by pass  0 Test12= 6.86D-16 4.76D-09 XBig12= 1.71D+01 2.09D+00.
 AX will form    18 AO Fock derivatives at one time.
     18 vectors produced by pass  1 Test12= 6.86D-16 4.76D-09 XBig12= 7.09D-01 3.42D-01.
     18 vectors produced by pass  2 Test12= 6.86D-16 4.76D-09 XBig12= 2.36D-03 1.59D-02.
     18 vectors produced by pass  3 Test12= 6.86D-16 4.76D-09 XBig12= 1.15D-06 2.62D-04.
     16 vectors produced by pass  4 Test12= 6.86D-16 4.76D-09 XBig12= 4.88D-10 7.68D-06.
      3 vectors produced by pass  5 Test12= 6.86D-16 4.76D-09 XBig12= 8.46D-14 1.10D-07.
 InvSVY:  IOpt=1 It=  1 EMax= 8.88D-16
 Solved reduced A of dimension    91 with    21 vectors.
 Isotropic polarizability for W=    0.000000       20.63 Bohr**3.
 End of Minotr F.D. properties file   721 does not exist.
 End of Minotr F.D. properties file   722 does not exist.
 End of Minotr F.D. properties file   788 does not exist.

 **********************************************************************

            Population analysis using the SCF density.

 **********************************************************************

 Alpha  occ. eigenvalues --  -10.16136 -10.13380  -0.77308  -0.58383  -0.43996
 Alpha  occ. eigenvalues --   -0.42955  -0.37239  -0.20127
 Alpha virt. eigenvalues --   -0.08845   0.11812   0.16587   0.16815   0.19181
 Alpha virt. eigenvalues --    0.26270   0.71602   0.71683   0.73139   0.77064
 Alpha virt. eigenvalues --    0.79511   0.84366   0.93966   1.00327   1.05753
 Alpha virt. eigenvalues --    1.08210   1.46332   1.86355
          Condensed to atoms (all electrons):
               1          2          3          4          5          6
     1  C    5.571726   0.202226   0.366617   0.314712   0.314702  -0.072150
     2  C    0.202226   5.756953  -0.050815  -0.022982  -0.022972   0.262344
     3  H    0.366617  -0.050815   0.526444  -0.035067  -0.035065   0.005954
     4  H    0.314712  -0.022982  -0.035067   0.525847  -0.005158  -0.007019
     5  H    0.314702  -0.022972  -0.035065  -0.005158   0.525820  -0.007013
     6  H   -0.072150   0.262344   0.005954  -0.007019  -0.007013   0.676581
 Mulliken charges:
               1
     1  C   -0.697833
     2  C   -0.124755
     3  H    0.221932
     4  H    0.229667
     5  H    0.229686
     6  H    0.141303
 Sum of Mulliken charges =   0.00000
 Mulliken charges with hydrogens summed into heavy atoms:
               1
     1  C   -0.016548
     2  C    0.016548
 APT charges:
               1
     1  C   -0.075388
     2  C    0.024798
     3  H   -0.011213
     4  H    0.049767
     5  H    0.049861
     6  H   -0.037824
 Sum of APT charges =   0.00000
 APT charges with hydrogens summed into heavy atoms:
               1
     1  C    0.013026
     2  C   -0.013026
 Electronic spatial extent (au):  <R**2>=             94.0010
 Charge=              0.0000 electrons
 Dipole moment (field-independent basis, Debye):
    X=             -0.7753    Y=             -0.2926    Z=             -2.3293  Tot=              2.4723
 Quadrupole moment (field-independent basis, Debye-Ang):
   XX=            -14.0567   YY=            -12.9081   ZZ=            -17.8984
   XY=              0.1731   XZ=             -2.2890   YZ=             -0.2331
 Traceless Quadrupole moment (field-independent basis, Debye-Ang):
   XX=              0.8977   YY=              2.0463   ZZ=             -2.9440
   XY=              0.1731   XZ=             -2.2890   YZ=             -0.2331
 Octapole moment (field-independent basis, Debye-Ang**2):
  XXX=             -7.4442  YYY=             -0.0541  ZZZ=            -20.4434  XYY=             -2.5419
  XXY=              0.4736  XXZ=             -6.2489  XZZ=             -6.4396  YZZ=              0.4958
  YYZ=             -3.8673  XYZ=             -0.3410
 Hexadecapole moment (field-independent basis, Debye-Ang**3):
 XXXX=            -53.8546 YYYY=            -28.1255 ZZZZ=            -60.6243 XXXY=              8.4549
 XXXZ=            -15.1025 YYYX=              7.9163 YYYZ=              4.0178 ZZZX=            -20.1333
 ZZZY=              4.1035 XXYY=            -12.8158 XXZZ=            -21.1487 YYZZ=            -12.1933
 XXYZ=              2.4038 YYXZ=             -4.4271 ZZXY=              3.3321
 N-N= 3.156980236008D+01 E-N=-2.432680440301D+02  KE= 7.736151880979D+01
  Exact polarizability:  22.655  -3.668  19.694   1.636  -0.292  19.531
 Approx polarizability:  29.419  -3.783  26.072   2.184  -0.421  26.631
 Calling FoFJK, ICntrl=    100127 FMM=F ISym2X=0 I1Cent= 0 IOpClX= 0 NMat=1 NMatS=1 NMatT=0.
 Full mass-weighted force constant matrix:
 Low frequencies --- -357.0495  -21.3202   -0.0005    0.0005    0.0010   19.3151
 Low frequencies ---   29.7641  845.5426  923.2709
 ******    1 imaginary frequencies (negative Signs) ****** 
 Diagonal vibrational polarizability:
        2.2548345       2.9682985       1.6211818
 Harmonic frequencies (cm**-1), IR intensities (KM/Mole), Raman scattering
 activities (A**4/AMU), depolarization ratios for plane and unpolarized
 incident light, reduced masses (AMU), force constants (mDyne/A),
 and normal coordinates:
                      1                      2                      3
                      A                      A                      A
 Frequencies --   -357.0437               845.5418               923.2708
 Red. masses --      1.2435                 1.0949                 1.8404
 Frc consts  --      0.0934                 0.4612                 0.9243
 IR Inten    --     19.4564                 0.7859                23.1886
  Atom  AN      X      Y      Z        X      Y      Z        X      Y      Z
     1   6    -0.05  -0.07   0.03     0.05   0.07  -0.03     0.10  -0.01   0.17
     2   6     0.07   0.09  -0.03     0.00   0.00   0.00    -0.13   0.05  -0.13
     3   1    -0.03  -0.04   0.01    -0.22  -0.29   0.11    -0.18   0.02  -0.31
     4   1    -0.03   0.17  -0.47     0.39  -0.28   0.20     0.46  -0.23   0.09
     5   1     0.32   0.21   0.33    -0.44   0.21  -0.17     0.39  -0.33   0.13
     6   1    -0.40  -0.52   0.20    -0.32  -0.43   0.16    -0.31   0.10  -0.36
                      4                      5                      6
                      A                      A                      A
 Frequencies --    993.1246              1314.6228              1377.9912
 Red. masses --      1.8818                 1.2710                 1.1665
 Frc consts  --      1.0935                 1.2942                 1.3050
 IR Inten    --      4.6073                31.4353                41.1501
  Atom  AN      X      Y      Z        X      Y      Z        X      Y      Z
     1   6     0.14  -0.08   0.05    -0.06   0.07   0.08     0.08  -0.04   0.06
     2   6    -0.16   0.07  -0.14     0.03  -0.05  -0.07     0.00   0.02   0.05
     3   1     0.38  -0.11   0.47    -0.30   0.10  -0.33    -0.04  -0.02  -0.15
     4   1    -0.22   0.15   0.03     0.18   0.06  -0.27    -0.14   0.35  -0.53
     5   1    -0.19   0.18   0.02    -0.08  -0.28  -0.14    -0.53  -0.16  -0.33
     6   1     0.33  -0.05   0.54     0.48  -0.15   0.55    -0.22   0.08  -0.24
                      7                      8                      9
                      A                      A                      A
 Frequencies --   1526.2117              1530.2634              2787.3942
 Red. masses --      1.0741                 1.0623                 1.0798
 Frc consts  --      1.4741                 1.4657                 4.9431
 IR Inten    --      1.3996                19.7534               124.8407
  Atom  AN      X      Y      Z        X      Y      Z        X      Y      Z
     1   6    -0.06   0.04  -0.02    -0.04  -0.06   0.02     0.00   0.00   0.00
     2   6    -0.01   0.01   0.02    -0.01  -0.01   0.00    -0.05   0.05   0.04
     3   1     0.36   0.01   0.57     0.42   0.58  -0.26    -0.02   0.01   0.00
     4   1     0.41  -0.12  -0.34     0.35  -0.22  -0.09     0.04   0.06   0.02
     5   1     0.09  -0.44  -0.19    -0.30   0.38   0.08    -0.03  -0.03   0.05
     6   1    -0.04   0.02  -0.04     0.03   0.03  -0.01     0.56  -0.63  -0.52
                     10                     11                     12
                      A                      A                      A
 Frequencies --   2958.3658              2990.3206              3121.6571
 Red. masses --      1.0438                 1.0881                 1.0918
 Frc consts  --      5.3824                 5.7327                 6.2685
 IR Inten    --      2.4329                 2.4272                31.3738
  Atom  AN      X      Y      Z        X      Y      Z        X      Y      Z
     1   6    -0.01  -0.01  -0.05     0.05   0.07  -0.02    -0.05   0.05   0.05
     2   6     0.00   0.00  -0.01     0.00   0.00   0.00     0.00   0.00   0.00
     3   1     0.13  -0.14  -0.11     0.02   0.03  -0.01     0.61  -0.63  -0.43
     4   1     0.35   0.54   0.23    -0.35  -0.54  -0.27    -0.08  -0.10  -0.03
     5   1    -0.29  -0.29   0.55    -0.28  -0.28   0.59     0.05   0.08  -0.10
     6   1    -0.05   0.05   0.05     0.00   0.00   0.00     0.03  -0.03  -0.02

 -------------------
 - Thermochemistry -
 -------------------
 Temperature   298.150 Kelvin.  Pressure   1.00000 Atm.
 Atom     1 has atomic number  6 and mass  12.00000
 Atom     2 has atomic number  6 and mass  12.00000
 Atom     3 has atomic number  1 and mass   1.00783
 Atom     4 has atomic number  1 and mass   1.00783
 Atom     5 has atomic number  1 and mass   1.00783
 Atom     6 has atomic number  1 and mass   1.00783
 Molecular mass:    28.03130 amu.
 Principal axes and moments of inertia in atomic units:
                           1         2         3
     Eigenvalues --    15.20124  71.53729  75.77818
           X            0.74778  -0.32414   0.57945
           Y           -0.35630   0.54052   0.76216
           Z            0.56025   0.77638  -0.28870
 This molecule is an asymmetric top.
 Rotational symmetry number  1.
 Rotational temperatures (Kelvin)      5.69781     1.21075     1.14299
 Rotational constants (GHZ):         118.72331    25.22798    23.81611
    1 imaginary frequencies ignored.
 Zero-point vibrational energy     121832.3 (Joules/Mol)
                                   29.11861 (Kcal/Mol)
 Vibrational temperatures:   1216.54  1328.38  1428.88  1891.45  1982.62
          (Kelvin)           2195.88  2201.70  4010.43  4256.42  4302.40
                             4491.36
 
 Zero-point correction=                           0.046403 (Hartree/Particle)
 Thermal correction to Energy=                    0.049417
 Thermal correction to Enthalpy=                  0.050361
 Thermal correction to Gibbs Free Energy=         0.024020
 Sum of electronic and zero-point Energies=            -77.983724
 Sum of electronic and thermal Energies=               -77.980711
 Sum of electronic and thermal Enthalpies=             -77.979767
 Sum of electronic and thermal Free Energies=          -78.006108
 
                     E (Thermal)             CV                S
                      KCal/Mol        Cal/Mol-Kelvin    Cal/Mol-Kelvin
 Total                   31.010              7.786             55.440
 Electronic               0.000              0.000              0.000
 Translational            0.889              2.981             35.927
 Rotational               0.889              2.981             19.050
 Vibrational             29.232              1.824              0.463
                       Q            Log10(Q)             Ln(Q)
 Total Bot       0.894636D-11        -11.048354        -25.439774
 Total V=0       0.197565D+11         10.295710         23.706749
 Vib (Bot)       0.471957D-21        -21.326098        -49.105155
 Vib (V=0)       0.104224D+01          0.017966          0.041368
 Electronic      0.100000D+01          0.000000          0.000000
 Translational   0.583338D+07          6.765920         15.579107
 Rotational      0.324956D+04          3.511824          8.086274
 -------------------------------------------------------------------
 Center     Atomic                   Forces (Hartrees/Bohr)
 Number     Number              X              Y              Z
 -------------------------------------------------------------------
      1        6          -0.000000178   -0.000000350   -0.000000323
      2        6           0.000000099    0.000001697    0.000000404
      3        1          -0.000000814   -0.000000348   -0.000001286
      4        1           0.000000585   -0.000001308    0.000000692
      5        1          -0.000000449   -0.000001103   -0.000000844
      6        1           0.000000757    0.000001411    0.000001357
 -------------------------------------------------------------------
 Cartesian Forces:  Max     0.000001697 RMS     0.000000907

 GradGradGradGradGradGradGradGradGradGradGradGradGradGradGradGradGradGrad
 Berny optimization.
 Search for a local minimum.
 Step number   1 out of a maximum of    2
 All quantities printed in internal units (Hartrees-Bohrs-Radians)
 Second derivative matrix not updated -- analytic derivatives used.
 The second derivative matrix:
                          X1        Y1        Z1        X2        Y2
           X1           0.46814
           Y1          -0.06757   0.48203
           Z1          -0.05837   0.05856   0.44577
           X2          -0.09972   0.06805  -0.06918   0.21251
           Y2           0.07921  -0.03147   0.01192  -0.16035   0.14521
           Z2          -0.03960  -0.01058  -0.08312   0.01384   0.07573
           X3          -0.15071   0.10337   0.07539  -0.02063   0.01341
           Y3           0.10346  -0.16005  -0.07692   0.00450  -0.00984
           Z3           0.07558  -0.07707  -0.10404  -0.01595   0.01881
           X4          -0.11305  -0.09993  -0.04197  -0.00820  -0.00935
           Y4          -0.08032  -0.18260  -0.07012  -0.00374  -0.00108
           Z4          -0.05057  -0.08519  -0.06036  -0.00684  -0.00123
           X5          -0.07344  -0.01878   0.07290  -0.00308  -0.00435
           Y5          -0.03388  -0.08357   0.08395  -0.00429  -0.00416
           Z5           0.09347   0.08993  -0.19914  -0.00537   0.00160
           X6          -0.03122   0.01487   0.02124  -0.08088   0.08143
           Y6          -0.00090  -0.02434  -0.00739   0.09584  -0.09866
           Z6          -0.02051   0.02435   0.00089   0.08349  -0.10683
                          Z2        X3        Y3        Z3        X4
           Z2           0.22237
           X3           0.00757   0.16990
           Y3           0.00093  -0.11844   0.17321
           Z3           0.01089  -0.07680   0.08139   0.11312
           X4          -0.01363   0.01131   0.01633   0.00761   0.11707
           Y4           0.00398  -0.01199  -0.01714  -0.00639   0.10641
           Z4          -0.01862  -0.00824  -0.01187  -0.00664   0.04830
           X5          -0.01352  -0.00884  -0.01029   0.01609  -0.00575
           Y5           0.00777   0.00819   0.00926  -0.01850  -0.01068
           Z5          -0.02067   0.00589   0.00677  -0.01291  -0.00294
           X6           0.04534  -0.00103   0.00443  -0.00652  -0.00138
           Y6          -0.07783   0.00546   0.00456   0.00175  -0.00278
           Z6          -0.11085  -0.00381  -0.00031  -0.00042   0.00264
                          Y4        Z4        X5        Y5        Z5
           Y4           0.20996
           Z4           0.08029   0.07278
           X5          -0.01165   0.01894   0.08604
           Y5          -0.01336   0.02100   0.04128   0.09254
           Z5          -0.00731   0.00972  -0.09314  -0.09377   0.22135
           X6           0.00129  -0.00159   0.00507  -0.00061   0.00209
           Y6           0.00423  -0.00300   0.00380  -0.00071   0.00278
           Z6          -0.00045   0.00313  -0.00126  -0.00045   0.00165
                          X6        Y6        Z6
           X6           0.10944
           Y6          -0.10141   0.11492
           Z6          -0.06055   0.08369   0.10560
 ITU=  0
     Eigenvalues ---   -0.01106   0.03507   0.03984   0.09131   0.11033
     Eigenvalues ---    0.11275   0.15627   0.29395   0.46468   0.59623
     Eigenvalues ---    0.60684   0.76317
 Eigenvalue     1 is  -1.11D-02 should be greater than     0.000000 Eigenvector:
                          Y6        Z4        X6        Y2        Z5
   1                    0.48384   0.39296   0.36770  -0.34535  -0.32885
                          X2        X5        Z6        Y1        Z2
   1                   -0.26246  -0.18917  -0.18328   0.17151   0.13083
 Angle between quadratic step and forces=  75.52 degrees.
 Linear search not attempted -- first point.
 TrRot= -0.000002 -0.000003  0.000001 -0.000002 -0.000003 -0.000002
 Variable       Old X    -DE/DX   Delta X   Delta X   Delta X     New X
                                 (Linear)    (Quad)   (Total)
    X1       -0.62209   0.00000   0.00000   0.00001   0.00001  -0.62208
    Y1        0.42716   0.00000   0.00000   0.00002   0.00001   0.42718
    Z1       -0.12062   0.00000   0.00000   0.00000   0.00000  -0.12062
    X2        1.43046   0.00000   0.00000  -0.00002  -0.00003   1.43043
    Y2       -0.47091   0.00000   0.00000  -0.00003  -0.00004  -0.47095
    Z2        1.62813   0.00000   0.00000   0.00001   0.00001   1.62814
    X3       -1.93696   0.00000   0.00000   0.00000   0.00001  -1.93696
    Y3        1.75678   0.00000   0.00000   0.00001   0.00001   1.75679
    Z3        0.75136   0.00000   0.00000  -0.00001  -0.00001   0.75135
    X4       -1.68301   0.00000   0.00000   0.00001   0.00000  -1.68301
    Y4       -1.21305   0.00000   0.00000   0.00000   0.00000  -1.21305
    Z4       -0.86980   0.00000   0.00000   0.00003   0.00003  -0.86977
    X5        0.22772   0.00000   0.00000  -0.00002  -0.00001   0.22771
    Y5        1.30077   0.00000   0.00000  -0.00001  -0.00001   1.30076
    Z5       -1.82115   0.00000   0.00000  -0.00003  -0.00003  -1.82118
    X6        2.58388   0.00000   0.00000   0.00003   0.00002   2.58390
    Y6       -1.80076   0.00000   0.00000   0.00004   0.00002  -1.80073
    Z6        0.43207   0.00000   0.00000  -0.00001   0.00000   0.43206
         Item               Value     Threshold  Converged?
 Maximum Force            0.000002     0.000450     YES
 RMS     Force            0.000001     0.000300     YES
 Maximum Displacement     0.000038     0.001800     YES
 RMS     Displacement     0.000018     0.001200     YES
 Predicted change in Energy=-8.149946D-11
 Optimization completed.
    -- Stationary point found.
 GradGradGradGradGradGradGradGradGradGradGradGradGradGradGradGradGradGrad

 1\1\GINC-ANT01\Freq\RB3LYP\3-21G\C2H4\GNOVIKOV\14-Oct-2017\0\\# B3lyp/
 3-21g nosym freq\\\0,1\C,-0.3291947805,0.2260450628,-0.063827715\C,0.7
 569686884,-0.2491966195,0.8615691196\H,-1.024996116,0.9296477225,0.397
 6039983\H,-0.8906116032,-0.6419161728,-0.4602763527\H,0.1205042252,0.6
 883385494,-0.9637110052\H,1.367329482,-0.9529186293,0.2286403047\\Vers
 ion=AM64L-G09RevD.01\HF=-78.0301277\RMSD=2.627e-09\RMSF=9.072e-07\Zero
 Point=0.0464035\Thermal=0.049417\Dipole=-0.3050225,-0.1151152,-0.91641
 15\DipoleDeriv=-0.0453323,0.081451,-0.2745594,0.033865,0.1725263,-0.00
 02212,-0.39964,0.0950061,-0.353359,0.0189542,-0.2967809,0.2118668,-0.3
 461555,-0.1734773,0.106355,0.0805771,0.2060391,0.2289169,-0.0491774,0.
 1033164,0.0451329,0.0997459,-0.0275705,-0.0424029,0.0356831,-0.0351583
 ,0.0431098,0.0666473,0.0242001,-0.0817655,-0.0531144,-0.0424846,-0.031
 234,0.0097749,-0.0387339,0.125137,0.0092434,-0.0502772,0.0739371,0.056
 9046,0.1040002,0.0810364,0.0613841,0.0284198,0.0363392,-0.0003352,0.13
 80907,0.0253881,0.2087544,-0.032994,-0.1135333,0.2122209,-0.2555729,-0
 .0801438\Polar=22.6546627,-3.6680196,19.6944916,1.6362694,-0.291547,19
 .5309306\PG=C01 [X(C2H4)]\NImag=1\\0.46814317,-0.06757452,0.48203435,-
 0.05837455,0.05855956,0.44576598,-0.09972078,0.06804740,-0.06918214,0.
 21250754,0.07921239,-0.03147260,0.01192041,-0.16035242,0.14520926,-0.0
 3959743,-0.01058274,-0.08312085,0.01384064,0.07573310,0.22237177,-0.15
 070997,0.10337117,0.07538784,-0.02062860,0.01341101,0.00756669,0.16990
 144,0.10345926,-0.16004669,-0.07691804,0.00450177,-0.00983561,0.000934
 17,-0.11843736,0.17320797,0.07557790,-0.07706584,-0.10403909,-0.015949
 20,0.01880650,0.01089207,-0.07679818,0.08139307,0.11311964,-0.11305041
 ,-0.09993128,-0.04196968,-0.00820038,-0.00934991,-0.01363181,0.0113132
 3,0.01633127,0.00760669,0.11706936,-0.08031984,-0.18260444,-0.07011870
 ,-0.00374016,-0.00108386,0.00397584,-0.01198961,-0.01714421,-0.0063861
 9,0.10640992,0.20996298,-0.05056729,-0.08519066,-0.06036230,-0.0068375
 2,-0.00123035,-0.01861916,-0.00824154,-0.01186835,-0.00664438,0.048302
 67,0.08028743,0.07277619,-0.07344091,-0.01878209,0.07290086,-0.0030806
 2,-0.00435030,-0.01351767,-0.00884151,-0.01028615,0.01608621,-0.005747
 83,-0.01165494,0.01893796,0.08603640,-0.03387507,-0.08357488,0.0839491
 2,-0.00429437,-0.00415545,0.00777349,0.00818612,0.00926003,-0.01850187
 ,-0.01068308,-0.01335772,0.02099850,0.04127700,0.09254062,0.09347018,0
 .08992538,-0.19913503,-0.00536507,0.00159931,-0.02067255,0.00589042,0.
 00677341,-0.01290816,-0.00294345,-0.00731097,0.00971737,-0.09314479,-0
 .09377027,0.22134676,-0.03122111,0.01486933,0.02123767,-0.08087716,0.0
 8142924,0.04533958,-0.00103458,0.00443121,-0.00652342,-0.00138396,0.00
 129463,-0.00159428,0.00507448,-0.00061060,0.00209271,0.10944234,-0.000
 90221,-0.02433574,-0.00739235,0.09583779,-0.09866173,-0.07783386,0.005
 45866,0.00455852,0.00175434,-0.00277691,0.00422725,-0.00299657,0.00379
 648,-0.00071261,0.00278316,-0.10141381,0.11492431,-0.02050881,0.024354
 30,0.00089129,0.08349328,-0.10682896,-0.11085128,-0.00380523,-0.000314
 25,-0.00042008,0.00263559,-0.00044741,0.00313229,-0.00126257,-0.000448
 96,0.00165160,-0.06055225,0.08368528,0.10559617\\0.00000018,0.00000035
 ,0.00000032,-0.00000010,-0.00000170,-0.00000040,0.00000081,0.00000035,
 0.00000129,-0.00000059,0.00000131,-0.00000069,0.00000045,0.00000110,0.
 00000084,-0.00000076,-0.00000141,-0.00000136\\\@


 GARBAGE IN, GARBAGE OUT
 Job cpu time:       0 days  0 hours  0 minutes 13.9 seconds.
 File lengths (MBytes):  RWF=     18 Int=      0 D2E=      0 Chk=      1 Scr=      5
 Normal termination of Gaussian 09 at Sat Oct 14 16:10:51 2017.
