                                                                        
Freq      RB3LYP                                                      3-21G               
Number of atoms                            I                6
Info1-9                                    I   N=           9
          19          19           0           0           0         100
           6          18        -502
Charge                                     I                0
Multiplicity                               I                1
Number of electrons                        I               16
Number of alpha electrons                  I                8
Number of beta electrons                   I                8
Number of basis functions                  I               26
Number of independent functions            I               26
Number of point charges in /Mol/           I                0
Number of translation vectors              I                0
Atomic numbers                             I   N=           6
           6           6           1           1           1           1
Nuclear charges                            R   N=           6
  6.00000000E+00  6.00000000E+00  1.00000000E+00  1.00000000E+00  1.00000000E+00
  1.00000000E+00
Current cartesian coordinates              R   N=          18
 -1.46359016E+00  3.74058419E-07 -6.96400595E-06  1.46358974E+00  2.15604188E-07
 -1.11189755E-06 -2.48506652E+00  1.77337753E+00  1.03564909E-05 -2.48506149E+00
 -1.77337710E+00 -1.21088209E-05  2.48506467E+00  1.77337612E+00  4.01833624E-06
  2.48506356E+00 -1.77337730E+00  2.69132956E-06
Force Field                                I                0
Int Atom Types                             I   N=           6
           0           0           0           0           0           0
MM charges                                 R   N=           6
  0.00000000E+00  0.00000000E+00  0.00000000E+00  0.00000000E+00  0.00000000E+00
  0.00000000E+00
Integer atomic weights                     I   N=           6
          12          12           1           1           1           1
Real atomic weights                        R   N=           6
  1.20000000E+01  1.20000000E+01  1.00782504E+00  1.00782504E+00  1.00782504E+00
  1.00782504E+00
Atom fragment info                         I   N=           6
           0           0           0           0           0           0
Atom residue num                           I   N=           6
           0           0           0           0           0           0
Nuclear spins                              I   N=           6
           0           0           1           1           1           1
Nuclear ZEff                               R   N=           6
 -3.60000000E+00 -3.60000000E+00 -1.00000000E+00 -1.00000000E+00 -1.00000000E+00
 -1.00000000E+00
Nuclear ZNuc                               R   N=           6
  6.00000000E+00  6.00000000E+00  1.00000000E+00  1.00000000E+00  1.00000000E+00
  1.00000000E+00
Nuclear QMom                               R   N=           6
  0.00000000E+00  0.00000000E+00  0.00000000E+00  0.00000000E+00  0.00000000E+00
  0.00000000E+00
Nuclear GFac                               R   N=           6
  0.00000000E+00  0.00000000E+00  2.79284600E+00  2.79284600E+00  2.79284600E+00
  2.79284600E+00
MicOpt                                     I   N=           6
          -1          -1          -1          -1          -1          -1
Number of contracted shells                I               14
Number of primitive shells                 I               24
Pure/Cartesian d shells                    I                1
Pure/Cartesian f shells                    I                0
Highest angular momentum                   I                1
Largest degree of contraction              I                3
Shell types                                I   N=          14
           0          -1          -1           0          -1          -1
           0           0           0           0           0           0
           0           0
Number of primitives per shell             I   N=          14
           3           2           1           3           2           1
           2           1           2           1           2           1
           2           1
Shell to atom map                          I   N=          14
           1           1           1           2           2           2
           3           3           4           4           5           5
           6           6
Primitive exponents                        R   N=          24
  1.72256000E+02  2.59109000E+01  5.53335000E+00  3.66498000E+00  7.70545000E-01
  1.95857000E-01  1.72256000E+02  2.59109000E+01  5.53335000E+00  3.66498000E+00
  7.70545000E-01  1.95857000E-01  5.44717800E+00  8.24547240E-01  1.83191580E-01
  5.44717800E+00  8.24547240E-01  1.83191580E-01  5.44717800E+00  8.24547240E-01
  1.83191580E-01  5.44717800E+00  8.24547240E-01  1.83191580E-01
Contraction coefficients                   R   N=          24
  6.17669074E-02  3.58794043E-01  7.00713084E-01 -3.95895162E-01  1.21583436E+00
  1.00000000E+00  6.17669074E-02  3.58794043E-01  7.00713084E-01 -3.95895162E-01
  1.21583436E+00  1.00000000E+00  1.56284979E-01  9.04690877E-01  1.00000000E+00
  1.56284979E-01  9.04690877E-01  1.00000000E+00  1.56284979E-01  9.04690877E-01
  1.00000000E+00  1.56284979E-01  9.04690877E-01  1.00000000E+00
P(S=P) Contraction coefficients            R   N=          24
  0.00000000E+00  0.00000000E+00  0.00000000E+00  2.36459947E-01  8.60618806E-01
  1.00000000E+00  0.00000000E+00  0.00000000E+00  0.00000000E+00  2.36459947E-01
  8.60618806E-01  1.00000000E+00  0.00000000E+00  0.00000000E+00  0.00000000E+00
  0.00000000E+00  0.00000000E+00  0.00000000E+00  0.00000000E+00  0.00000000E+00
  0.00000000E+00  0.00000000E+00  0.00000000E+00  0.00000000E+00
Coordinates of each shell                  R   N=          42
 -1.46359016E+00  3.74058419E-07 -6.96400595E-06 -1.46359016E+00  3.74058419E-07
 -6.96400595E-06 -1.46359016E+00  3.74058419E-07 -6.96400595E-06  1.46358974E+00
  2.15604188E-07 -1.11189755E-06  1.46358974E+00  2.15604188E-07 -1.11189755E-06
  1.46358974E+00  2.15604188E-07 -1.11189755E-06 -2.48506652E+00  1.77337753E+00
  1.03564909E-05 -2.48506652E+00  1.77337753E+00  1.03564909E-05 -2.48506149E+00
 -1.77337710E+00 -1.21088209E-05 -2.48506149E+00 -1.77337710E+00 -1.21088209E-05
  2.48506467E+00  1.77337612E+00  4.01833624E-06  2.48506467E+00  1.77337612E+00
  4.01833624E-06  2.48506356E+00 -1.77337730E+00  2.69132956E-06  2.48506356E+00
 -1.77337730E+00  2.69132956E-06
Constraint Structure                       R   N=          18
 -1.46359016E+00  3.74058419E-07 -6.96400595E-06  1.46358974E+00  2.15604188E-07
 -1.11189755E-06 -2.48506652E+00  1.77337753E+00  1.03564909E-05 -2.48506149E+00
 -1.77337710E+00 -1.21088209E-05  2.48506467E+00  1.77337612E+00  4.01833624E-06
  2.48506356E+00 -1.77337730E+00  2.69132956E-06
Num ILSW                                   I              100
ILSW                                       I   N=         100
           0           1           0           0           2           0
           0           0           0           0         402          -1
           0           0           0           0           2           0
           0           0           1           0           1           0
           1           1           0           0           0           0
           0           0      100000           0          -1           0
           0           0           0           0           0           0
           0           0           0           1           0           0
           0           0           1           0           0           0
           0           0           4          41           0           0
           0           0           5           0           0           0
           0           0           0           0           0           0
           0           0           0           0           0           0
           0           0           0           0           0           0
           0           0           0           0           0           0
           0           0           0           0           0           0
           0           0           0           0
Num RLSW                                   I               41
RLSW                                       R   N=          41
  8.00000000E-01  7.20000000E-01  1.00000000E+00  8.10000000E-01  2.00000000E-01
  0.00000000E+00  0.00000000E+00  1.00000000E+00  0.00000000E+00  0.00000000E+00
  0.00000000E+00  0.00000000E+00  1.00000000E+00  0.00000000E+00  0.00000000E+00
  0.00000000E+00  0.00000000E+00  1.00000000E+00  0.00000000E+00  0.00000000E+00
  0.00000000E+00  0.00000000E+00  1.00000000E+00  0.00000000E+00  0.00000000E+00
  0.00000000E+00  0.00000000E+00  1.00000000E+00  0.00000000E+00  0.00000000E+00
  0.00000000E+00  0.00000000E+00  1.00000000E+00  0.00000000E+00  0.00000000E+00
  0.00000000E+00  0.00000000E+00  0.00000000E+00  1.00000000E+00  1.00000000E+00
  0.00000000E+00
MxBond                                     I                3
NBond                                      I   N=           6
           3           3           1           1           1           1
IBond                                      I   N=          18
           2           3           4           1           5           6
           1           0           0           1           0           0
           2           0           0           2           0           0
RBond                                      R   N=          18
  1.00000000E+00  1.00000000E+00  1.00000000E+00  1.00000000E+00  1.00000000E+00
  1.00000000E+00  1.00000000E+00  0.00000000E+00  0.00000000E+00  1.00000000E+00
  0.00000000E+00  0.00000000E+00  1.00000000E+00  0.00000000E+00  0.00000000E+00
  1.00000000E+00  0.00000000E+00  0.00000000E+00
Virial Ratio                               R      2.015227083861189E+00
SCF Energy                                 R     -7.812457663932611E+01
Total Energy                               R     -7.812457663932611E+01
RMS Force                                  R      4.712692082534668E-02
RMS Density                                R      8.647692060976345E-09
External E-field                           R   N=          35
  0.00000000E+00  0.00000000E+00  0.00000000E+00  0.00000000E+00  0.00000000E+00
  0.00000000E+00  0.00000000E+00  0.00000000E+00  0.00000000E+00  0.00000000E+00
  0.00000000E+00  0.00000000E+00  0.00000000E+00  0.00000000E+00  0.00000000E+00
  0.00000000E+00  0.00000000E+00  0.00000000E+00  0.00000000E+00  0.00000000E+00
  0.00000000E+00  0.00000000E+00  0.00000000E+00  0.00000000E+00  0.00000000E+00
  0.00000000E+00  0.00000000E+00  0.00000000E+00  0.00000000E+00  0.00000000E+00
  0.00000000E+00  0.00000000E+00  0.00000000E+00  0.00000000E+00  0.00000000E+00
IOpCl                                      I                0
IROHF                                      I                0
Alpha Orbital Energies                     R   N=          26
 -1.01445887E+01 -1.01437765E+01 -7.16121535E-01 -5.93569352E-01 -4.57094140E-01
 -3.89203652E-01 -3.81280608E-01 -2.38526840E-01 -2.06858627E-02  1.40117704E-01
  1.58701867E-01  1.70860378E-01  2.55681508E-01  2.67686006E-01  6.78704124E-01
  7.13140206E-01  7.38773399E-01  7.68764708E-01  7.86686296E-01  8.68387874E-01
  1.00581063E+00  1.04784653E+00  1.08472471E+00  1.30076258E+00  1.43458821E+00
  1.62716589E+00
Alpha MO coefficients                      R   N=         676
  6.97054999E-01  7.58496054E-02  1.87088182E-04 -6.25116685E-09  1.21995823E-08
 -5.90181630E-02 -9.96722685E-03  3.38213879E-08 -7.18890174E-08 -6.97025046E-01
 -7.58464824E-02  1.87117545E-04 -2.95982590E-11 -2.16371156E-09  5.90166061E-02
 -9.96741535E-03 -8.84613815E-09  3.62602462E-09 -9.35731895E-04  9.41390599E-03
 -9.35735073E-04  9.41395517E-03  9.35639172E-04 -9.41346468E-03  9.35631811E-04
 -9.41346643E-03  6.96745332E-01  7.26618069E-02 -7.30181565E-04 -6.85179217E-09
  1.16478761E-08 -3.63708091E-02  4.52687473E-03  2.51826018E-08 -3.96843210E-08
  6.96775297E-01  7.26650679E-02  7.30175239E-04 -3.06415448E-10  3.74401183E-09
 -3.63733442E-02 -4.52645729E-03  1.26158691E-09 -1.50417902E-08 -2.31302731E-03
  1.09097231E-02 -2.31303788E-03  1.09097672E-02 -2.31307706E-03  1.09101579E-02
 -2.31307064E-03  1.09101489E-02 -1.60110969E-01  1.69577027E-01  4.62103019E-02
 -2.45260028E-07  4.73162807E-07  3.94369737E-01  6.48153566E-03 -1.48763329E-07
  3.30419051E-07 -1.60111002E-01  1.69577066E-01 -4.62102453E-02 -5.46274750E-09
  4.31242406E-08  3.94369793E-01 -6.48146939E-03 -6.42134297E-08  5.83576105E-08
  9.24095460E-02  1.83396142E-02  9.24098897E-02  1.83395877E-02  9.24097839E-02
  1.83396099E-02  9.24097315E-02  1.83395817E-02 -1.36647723E-01  1.44086987E-01
 -1.27352779E-01 -3.86606731E-07  4.00361344E-07  4.14872494E-01 -5.99552441E-02
 -2.04714488E-07  3.84954086E-07  1.36647679E-01 -1.44086939E-01 -1.27352949E-01
 -1.71307483E-07 -3.50012962E-07 -4.14872384E-01 -5.99553408E-02 -8.28190685E-08
 -2.71375754E-07  1.34126271E-01  5.99263182E-02  1.34126643E-01  5.99263577E-02
 -1.34126622E-01 -5.99263844E-02 -1.34126360E-01 -5.99262926E-02 -1.69267388E-07
  1.57934474E-07 -3.91974426E-07  2.82805900E-01  1.50519517E-06  6.79324401E-07
 -3.37085481E-07  1.81465018E-01  9.41551147E-07  2.79083279E-08 -2.76850913E-08
  1.48809013E-07  2.82805797E-01  3.91878380E-07 -6.22249087E-08  6.92849128E-08
  1.81464930E-01  2.75646640E-07  1.52908681E-01  1.25634829E-01 -1.52908407E-01
 -1.25634548E-01  1.52908461E-01  1.25634588E-01 -1.52908484E-01 -1.25634672E-01
 -1.89399190E-02  2.11503329E-02  3.58217003E-01  3.70664562E-07 -3.70773737E-07
  5.17413769E-02  2.42071815E-01  1.49905112E-07 -3.10169666E-07 -1.89399932E-02
  2.11504046E-02 -3.58216968E-01  2.48944609E-07 -1.26861750E-06  5.17416730E-02
 -2.42071814E-01  2.30336596E-07 -8.78917134E-07 -1.07954129E-01 -1.09055964E-01
 -1.07954206E-01 -1.09056077E-01 -1.07954069E-01 -1.09055888E-01 -1.07954195E-01
 -1.09056041E-01 -4.46283020E-08  3.08574322E-08 -5.03340529E-08  2.76299335E-01
  2.36794101E-06  2.23229675E-07 -1.01993454E-07  1.93140339E-01  1.74158939E-06
 -4.77166491E-08  3.22839072E-08 -2.06369458E-07 -2.76299470E-01  5.14492079E-07
  2.94625562E-07 -1.56323169E-07 -1.93140410E-01  4.45986732E-07  1.81344480E-01
  1.73731022E-01 -1.81344549E-01 -1.73730859E-01 -1.81344591E-01 -1.73730979E-01
  1.81344595E-01  1.73731053E-01  3.67881887E-07 -3.66863011E-07  5.49431492E-07
 -2.60930878E-06  3.37553624E-01 -1.60780185E-06  5.50201384E-07 -2.63785990E-06
  3.83377024E-01 -3.12805966E-10  4.62721033E-08 -1.59086649E-06  3.45033055E-07
  3.37553612E-01 -2.45586177E-07 -1.42945922E-06  6.59765547E-08  3.83377020E-01
 -4.12335454E-07 -7.10932971E-07  6.40703973E-07  7.89655152E-07  4.64378970E-07
  5.72073845E-07 -5.88817480E-07 -9.28744764E-07  6.42659487E-07 -5.41707491E-07
  8.89629306E-08 -2.29806647E-06  3.72095835E-01 -4.11383192E-06  7.41332960E-07
 -4.04067071E-06  5.85471664E-01 -3.11299951E-07  3.55896987E-07  5.67925795E-07
  1.98032920E-07 -3.72095837E-01  1.51674033E-06  1.57690542E-06 -1.13029597E-07
 -5.85471675E-01  1.18943368E-06  2.83139888E-06  3.06835800E-07  6.08368279E-07
  1.48879920E-07  3.29217615E-07 -7.33675755E-07 -1.89350758E-06 -9.84259153E-02
  5.49216545E-02 -1.55698923E-01  3.85512465E-07  9.14392038E-07  1.29629160E+00
 -5.26034263E-01  2.23941669E-07  3.22160658E-06 -9.84254019E-02  5.49213461E-02
  1.55698737E-01 -2.80970917E-07  3.86887251E-07  1.29628619E+00  5.26034139E-01
 -3.83217619E-07  1.16179844E-06 -4.74134945E-02 -9.04128958E-01 -4.74132990E-02
 -9.04127728E-01 -4.74131345E-02 -9.04125484E-01 -4.74129781E-02 -9.04125284E-01
  1.47301039E-01 -8.82020529E-02 -1.86506318E-03 -4.71511483E-06 -1.55440855E-06
 -1.64665059E+00 -5.61242125E-02 -1.42496203E-05 -4.85513737E-06 -1.47301396E-01
  8.82022332E-02 -1.86442395E-03 -3.81638800E-06  8.03662754E-07  1.64665578E+00
 -5.61219791E-02 -1.17001640E-05  2.46075860E-06  6.23064982E-02  8.28343525E-01
  6.23038048E-02  8.28310381E-01 -6.23039952E-02 -8.28316288E-01 -6.23065307E-02
 -8.28344760E-01  2.52997038E-06 -1.46830866E-06 -2.86089321E-07  2.54955466E-01
  2.14125166E-06 -3.02321070E-05 -1.77825428E-06  8.05653192E-01  6.90514839E-06
 -2.41897265E-06  1.36689921E-06  1.23985326E-07  2.54955379E-01 -4.30921133E-07
  2.83162246E-05 -1.34903845E-06  8.05652731E-01 -1.50070690E-06 -7.01941756E-02
 -9.61899394E-01  7.01959410E-02  9.61929857E-01 -7.01960484E-02 -9.61928066E-01
  7.01941007E-02  9.61900520E-01  7.98361436E-08 -3.54900007E-08  8.43750778E-07
  3.08318454E-01  1.86064582E-06 -3.37372186E-06  3.72642556E-06  1.29594054E+00
  6.84080032E-06  7.26492078E-08 -1.10885861E-07  1.06548416E-06 -3.08318464E-01
 -2.07662255E-07 -7.08043906E-07  2.98558515E-06 -1.29594067E+00 -1.85263858E-06
  5.86718420E-03 -1.22046162E+00 -5.86707541E-03  1.22047031E+00 -5.86730075E-03
  1.22046462E+00  5.86679753E-03 -1.22046801E+00 -6.79680435E-02  2.47540757E-02
  3.34625566E-01 -7.31509439E-07 -1.30527000E-07  8.24933388E-01  1.62324311E+00
 -3.20361063E-06  5.88618841E-07  6.79679865E-02 -2.47540372E-02  3.34625664E-01
  8.71725018E-07  9.82082517E-07 -8.24932065E-01  1.62324367E+00  3.97907572E-06
  4.61484524E-06  4.22589486E-02  5.13906356E-01  4.22594457E-02  5.13898892E-01
 -4.22589851E-02 -5.13907932E-01 -4.22591407E-02 -5.13899430E-01  2.40475435E-07
 -1.45096463E-07 -2.68718359E-06 -4.66379310E-01 -2.32119166E-07 -2.10128555E-06
  4.00705917E-06  7.55273230E-01  3.40129618E-06 -1.66200608E-07  3.91618044E-08
 -1.89073781E-07 -4.66379634E-01 -2.89456769E-06 -6.29810393E-07  8.00177161E-07
  7.55273959E-01  1.66383065E-06 -4.02735075E-01 -8.65875147E-03  4.02737428E-01
  8.66105927E-03 -4.02737098E-01 -8.65972775E-03  4.02735902E-01  8.65987796E-03
  3.85043370E-02 -3.84499181E-02 -6.13465113E-01  8.43232456E-07 -2.70829951E-06
  4.55618032E-01  1.29168108E+00 -1.49271642E-07  1.78771450E-06 -3.85043561E-02
  3.84501061E-02 -6.13464055E-01  1.66298984E-06  1.25725587E-06 -4.55618312E-01
  1.29167996E+00 -2.77756503E-06  1.41200146E-06  3.41987191E-01  5.09605214E-02
  3.41984744E-01  5.09624596E-02 -3.41984451E-01 -5.09617088E-02 -3.41986385E-01
 -5.09620606E-02  2.67279494E-07 -1.14112121E-07  1.48047525E-08 -4.85401434E-06
  7.62871478E-01 -2.71110638E-06  7.19643815E-07  3.78817704E-06 -5.93837599E-01
  1.32510800E-07  1.34295661E-07 -9.43250204E-07 -2.62435101E-07  7.62871332E-01
 -4.44820942E-07 -8.61002464E-07  1.93631357E-07 -5.93837413E-01  2.40648544E-06
  6.35430010E-08  1.16146582E-06  4.91768697E-07  6.61153678E-07  2.91413215E-07
  1.90412083E-06 -1.36708562E-07 -5.12524135E-03 -9.04051976E-02  6.65796014E-01
 -1.55873513E-07  3.85403625E-06  6.50123776E-01 -9.62877665E-01 -1.01687437E-06
 -2.79340966E-06 -5.12532326E-03 -9.04050401E-02 -6.65796984E-01 -1.46499373E-06
 -2.64231696E-06  6.50123021E-01  9.62881123E-01  4.25896602E-06  3.79655594E-06
 -2.46475090E-01 -1.32699547E-01 -2.46473953E-01 -1.32700253E-01 -2.46476264E-01
 -1.32702124E-01 -2.46474032E-01 -1.32699267E-01 -2.91287046E-07  5.51600972E-07
  4.28761932E-06  2.70439352E-06 -7.57958502E-01  2.43202311E-06 -8.63316730E-06
 -1.45896749E-06  9.36648497E-01  1.68068394E-07 -2.71763503E-07 -2.50963385E-06
 -2.38028318E-06  7.57958653E-01  2.25220975E-06  9.28795432E-07  4.82463051E-06
 -9.36648610E-01 -2.78824681E-06 -3.42650269E-06 -4.59676334E-07 -1.58910485E-06
 -1.41236192E-07 -9.12361026E-07  2.18732242E-06  9.25385269E-07  3.02651795E-02
  2.27602010E-01  3.79585637E-01 -7.03571959E-07 -1.18236950E-06 -6.20359462E-02
 -2.03347130E-01  3.77373594E-06 -5.66220730E-07  3.02651466E-02  2.27602167E-01
 -3.79585294E-01  8.54584022E-07 -3.19735737E-06 -6.20357212E-02  2.03345174E-01
 -2.25632066E-06  2.83567309E-06  5.76786536E-01 -3.96563868E-01  5.76785140E-01
 -3.96557559E-01  5.76784641E-01 -3.96557839E-01  5.76786642E-01 -3.96561755E-01
  2.00582554E-07 -1.25310837E-06  2.96979904E-06 -7.46545713E-01 -5.02637354E-06
 -1.48630946E-06 -8.10519209E-06  1.57538357E+00  8.96894635E-06 -2.43923306E-07
 -1.03076014E-06  3.46650019E-06  7.46544664E-01 -1.82830032E-08  3.58164408E-06
 -6.85293177E-06 -1.57538204E+00 -1.59918525E-06  3.73806001E-01 -1.09790887E+00
 -3.73802819E-01  1.09790210E+00 -3.73807579E-01  1.09790834E+00  3.73799986E-01
 -1.09790012E+00 -4.71996377E-02  3.41495104E-02 -5.17758015E-01  6.89738243E-07
  1.16776829E-06  2.89738891E-01  1.16753683E+00  3.20332491E-06  1.00705123E-08
  4.71996588E-02 -3.41491299E-02 -5.17758369E-01  9.82459742E-06 -1.18054632E-06
 -2.89739260E-01  1.16753701E+00 -1.71764311E-05  2.55301675E-06 -5.61373371E-01
  7.66783495E-01 -5.61367228E-01  7.66779697E-01  5.61364940E-01 -7.66767897E-01
  5.61376317E-01 -7.66795503E-01  4.24047019E-07  3.58201664E-07  4.27097966E-06
  6.47024968E-01  3.56136527E-06 -3.60034644E-06 -9.89830101E-06 -8.13367498E-01
 -5.04386248E-06 -4.84171985E-07  4.73889331E-07  4.63270292E-06  6.47026029E-01
  7.79082422E-07  2.52071368E-06 -1.10625767E-05 -8.13369336E-01 -4.12458507E-07
 -5.10763027E-01  9.02275608E-01  5.10772993E-01 -9.02288857E-01 -5.10773812E-01
  9.02290902E-01  5.10763713E-01 -9.02276781E-01  1.90450791E-07 -2.19880880E-07
  1.86554688E-06 -3.93266685E-01 -1.63944498E-06 -2.60356066E-06 -5.66379393E-06
  2.23386124E+00  1.06943083E-05 -1.73537715E-07  2.35274089E-06 -2.53922636E-07
  3.93266437E-01  9.98713055E-07 -1.03208869E-06 -3.69772634E-06 -2.23386050E+00
 -4.29095755E-06 -6.21690443E-01 -5.83639938E-01  6.21691610E-01  5.83638123E-01
  6.21689795E-01  5.83641451E-01 -6.21691240E-01 -5.83636783E-01  4.31906572E-02
 -1.22867455E+00  8.62448600E-03  7.26387782E-07 -1.11110257E-06  1.65974850E+00
 -2.50333756E-01 -8.32071140E-07  2.54572364E-06  4.31906734E-02 -1.22867444E+00
 -8.62466248E-03  1.77400046E-07 -3.98398996E-07  1.65974810E+00  2.50334554E-01
 -1.25154630E-06  9.82295890E-07  1.55674725E-01 -6.41263462E-01  1.55676821E-01
 -6.41266630E-01  1.55676637E-01 -6.41265428E-01  1.55675202E-01 -6.41265166E-01
 -1.05051746E-02 -1.39093901E+00  1.16587623E-02  7.10812631E-07 -6.28744583E-07
  3.04186501E+00  6.90380257E-01 -4.82350562E-06  4.66541589E-06  1.05051703E-02
  1.39093910E+00  1.16589208E-02 -3.62761659E-07  3.06493551E-07 -3.04186558E+00
  6.90379790E-01  3.01195702E-06 -2.72753004E-07 -7.10526436E-02 -4.52959261E-01
 -7.10540478E-02 -4.52963903E-01  7.10522945E-02  4.52961230E-01  7.10541641E-02
  4.52962598E-01
Total SCF Density                          R   N=         351
  2.03201315E+00  1.12514470E-01  1.21995331E-01  5.68150050E-03 -5.95225893E-03
  2.93348223E-01  3.14889723E-08 -7.44723048E-08  9.18454088E-08  3.12640999E-01
  3.47085799E-08  1.60369502E-08  4.70321386E-08  3.98313113E-07  2.27884899E-01
 -3.74588754E-01  2.41257699E-01 -3.21221278E-02  3.29611116E-08 -4.20691543E-07
  6.70259651E-01 -2.44692878E-03 -5.69366152E-03  1.89288101E-01 -2.43274996E-08
  1.49924086E-07 -1.87378596E-02  1.24710487E-01  1.01475682E-07 -2.50749536E-08
 -1.59391425E-08  2.09367850E-01 -3.19868353E-07  5.52773099E-08 -6.69910732E-08
  1.40465487E-01 -7.27109276E-08 -8.80895437E-08  1.31580449E-07 -5.05746342E-07
  2.58820608E-01 -6.73483239E-07  2.30898471E-07 -1.00813059E-06  2.93955885E-01
  1.38635965E-02 -2.02054106E-02 -6.44500893E-02 -5.25776903E-08 -2.90415856E-08
  1.67266088E-02 -7.42745476E-03 -3.43473580E-08  5.58227593E-08  2.03201315E+00
 -2.02054121E-02  1.59394189E-02  6.73905308E-02  4.60416941E-08  6.04983098E-08
  2.00522785E-02  3.18854579E-02  1.58327560E-08  2.86259607E-08  1.12514468E-01
  1.21995336E-01  6.44500708E-02 -6.73905163E-02 -2.28473089E-01 -1.74294003E-07
 -9.54053898E-07 -1.79262795E-01 -1.58753655E-01 -6.71577909E-08 -1.12626011E-06
 -5.68149341E-03  5.95226182E-03  2.93348250E-01 -3.24091758E-08  3.15399642E-08
  2.75905610E-08  7.27557614E-03 -2.24231864E-07  1.40213212E-07  6.69591010E-09
 -4.09042898E-03 -1.65293005E-07 -1.27305668E-08  2.45051155E-08  6.39916202E-08
  3.12641032E-01  3.80462981E-07 -3.87358083E-07 -4.44826369E-07 -1.25560523E-06
  2.27884890E-01 -1.47314257E-06 -2.00142244E-07 -1.43987574E-06  2.58820598E-01
 -5.33884472E-08  9.39377905E-08 -7.99554631E-08  1.70276973E-07  2.27884882E-01
  1.67266330E-02  2.00522648E-02  1.79262892E-01  2.93072661E-07 -1.62567590E-07
 -3.21491349E-02  7.84044162E-02  1.61424197E-07 -2.84798123E-07 -3.74588756E-01
  2.41257696E-01  3.21220709E-02 -3.43918520E-08  2.68299342E-08  6.70259618E-01
  7.42742202E-03 -3.18854345E-02 -1.58753661E-01 -1.76918825E-07 -8.40020897E-07
 -7.84043133E-02 -1.09934559E-01 -8.22334432E-08 -9.94528346E-07  2.44689891E-03
  5.69366843E-03  1.89288122E-01  2.56622091E-08 -3.09424758E-07  1.87378363E-02
  1.24710507E-01 -2.02960535E-08  8.33968634E-09  5.73595791E-08 -4.09042794E-03
 -3.23868970E-07  6.57394431E-08  3.78620334E-08 -8.74733518E-03 -2.80438009E-07
  3.18541759E-08 -9.16168440E-09 -4.26969302E-09  2.09367855E-01 -1.19733399E-08
 -9.56204115E-08 -1.50577676E-08  1.40465478E-01  3.54940883E-07 -3.78519433E-07
 -1.33869885E-07 -1.59833786E-06  2.58820605E-01 -1.50221831E-06  2.94355520E-08
 -1.75027340E-06  2.93955882E-01 -8.58159836E-08  9.35599901E-08 -5.26410391E-07
  1.74012284E-07  2.58820596E-01 -6.53344934E-09 -6.38673351E-07 -2.16483016E-08
  2.93955879E-01 -6.66861412E-02  6.49482135E-02 -1.02961280E-01  1.86697443E-01
  1.31559409E-06  1.73285260E-01 -6.71529671E-02  1.25544907E-01  8.35057026E-07
  9.23494583E-03 -1.20713606E-02  3.46349561E-02 -1.37239454E-02  2.16043205E-07
 -4.95170538E-02  3.50237894E-02 -1.45548520E-02  5.77087460E-08  1.88913171E-01
  1.02072452E-02  2.18895928E-02 -9.17125346E-02  1.67063937E-01  8.67717124E-07
  5.09988029E-02 -5.98358137E-02  1.12705529E-01  4.20298289E-07  1.67156599E-02
 -1.55049065E-02  6.11922713E-02 -2.49431379E-02  3.36509819E-08 -4.62262512E-02
  4.50887426E-02 -2.15123934E-02 -1.59827840E-07  1.44374530E-01  1.23989861E-01
 -6.66862332E-02  6.49483129E-02 -1.02961122E-01 -1.86697785E-01 -6.11771939E-07
  1.73285255E-01 -6.71527644E-02 -1.25545064E-01 -1.96715755E-07  9.23494753E-03
 -1.20713620E-02  3.46349436E-02  1.37239372E-02  3.14070219E-07 -4.95172744E-02
  3.50238489E-02  1.45548106E-02  3.73027061E-07 -3.61541306E-02 -5.84886227E-02
  1.88913413E-01  1.02074934E-02  2.18895034E-02 -9.17123965E-02 -1.67063961E-01
 -5.21182247E-07  5.09982975E-02 -5.98356340E-02 -1.12705487E-01 -1.12557411E-07
  1.67156956E-02 -1.55049413E-02  6.11924137E-02  2.49430571E-02  4.92242278E-07
 -4.62264876E-02  4.50888656E-02  2.15123074E-02  5.42304443E-07 -5.84885663E-02
 -5.98762950E-02  1.44374444E-01  1.23989667E-01  9.23493474E-03 -1.20713497E-02
 -3.46349750E-02 -1.37239717E-02 -2.49333001E-08 -4.95170883E-02 -3.50238308E-02
 -1.45548437E-02  3.71710359E-08 -6.66862227E-02  6.49482947E-02  1.02961335E-01
  1.86697619E-01  6.22493714E-07  1.73285249E-01  6.71529529E-02  1.25544944E-01
  5.52032082E-07 -1.45932100E-02 -1.37617995E-02  2.34261175E-02  3.54164478E-02
  1.88913368E-01  1.67156529E-02 -1.55048906E-02 -6.11923418E-02 -2.49431455E-02
 -8.08364118E-09 -4.62262451E-02 -4.50887930E-02 -2.15123684E-02  1.04207542E-07
  1.02074082E-02  2.18895337E-02  9.17125060E-02  1.67063901E-01  6.26266353E-07
  5.09984147E-02  5.98357505E-02  1.12705446E-01  5.78909354E-07 -1.37617517E-02
 -1.14592046E-02  3.54164649E-02  4.61343503E-02  1.44374462E-01  1.23989694E-01
  9.23495455E-03 -1.20713717E-02 -3.46349340E-02  1.37239178E-02  6.10712169E-08
 -4.95171785E-02 -3.50237917E-02  1.45548270E-02 -8.29446709E-08 -6.66861620E-02
  6.49482384E-02  1.02961123E-01 -1.86697651E-01  4.49886453E-08  1.73285228E-01
  6.71528277E-02 -1.25545033E-01 -1.00596174E-07  2.34261105E-02  3.54164646E-02
 -1.45932450E-02 -1.37617563E-02 -3.61541262E-02 -5.84886100E-02  1.88913279E-01
  1.67156816E-02 -1.55049396E-02 -6.11923150E-02  2.49430522E-02 -1.32176372E-07
 -4.62263924E-02 -4.50887797E-02  2.15123393E-02 -3.09444401E-07  1.02073907E-02
  2.18895265E-02  9.17123763E-02 -1.67064057E-01 -2.26347867E-07  5.09985370E-02
  5.98356704E-02 -1.12705590E-01 -4.00445306E-07  3.54164410E-02  4.61343649E-02
 -1.37618089E-02 -1.14591616E-02 -5.84886471E-02 -5.98763424E-02  1.44374519E-01
  1.23989830E-01
Mulliken Charges                           R   N=           6
 -3.89048069E-01 -3.89048057E-01  1.94523918E-01  1.94524151E-01  1.94524062E-01
  1.94523995E-01
ONIOM Charges                              I   N=          16
           0           0           0           0           0           0
           0           0           0           0           0           0
           0           0           0           0
ONIOM Multiplicities                       I   N=          16
           1           0           0           0           0           0
           0           0           0           0           0           0
           0           0           0           0
Atom Layers                                I   N=           6
           1           1           1           1           1           1
Atom Modifiers                             I   N=           6
           0           0           0           0           0           0
Force Field                                I                0
Int Atom Modified Types                    I   N=           6
           0           0           0           0           0           0
Link Atoms                                 I   N=           6
           0           0           0           0           0           0
Atom Modified MM Charges                   R   N=           6
  0.00000000E+00  0.00000000E+00  0.00000000E+00  0.00000000E+00  0.00000000E+00
  0.00000000E+00
Link Distances                             R   N=          24
  0.00000000E+00  0.00000000E+00  0.00000000E+00  0.00000000E+00  0.00000000E+00
  0.00000000E+00  0.00000000E+00  0.00000000E+00  0.00000000E+00  0.00000000E+00