                                                                        
Freq      RB3LYP                                                      3-21G               
Number of atoms                            I                6
Info1-9                                    I   N=           9
          19          19           0           0           0         100
           6          18        -502
Charge                                     I                0
Multiplicity                               I                1
Number of electrons                        I               16
Number of alpha electrons                  I                8
Number of beta electrons                   I                8
Number of basis functions                  I               26
Number of independent functions            I               26
Number of point charges in /Mol/           I                0
Number of translation vectors              I                0
Atomic numbers                             I   N=           6
           6           6           1           1           1           1
Nuclear charges                            R   N=           6
  6.00000000E+00  6.00000000E+00  1.00000000E+00  1.00000000E+00  1.00000000E+00
  1.00000000E+00
Current cartesian coordinates              R   N=          18
 -8.94193009E-01  1.46757743E-01  7.65782794E-02  1.61796642E+00  2.29472008E-02
  9.91792852E-01 -2.03462360E+00  1.80338740E+00  5.34859939E-01 -1.97089712E+00
 -1.40788945E+00 -7.76481625E-01  8.44389183E-01  1.24170466E+00 -1.19471234E+00
  2.43735793E+00 -1.80690772E+00  3.67959772E-01
Force Field                                I                0
Int Atom Types                             I   N=           6
           0           0           0           0           0           0
MM charges                                 R   N=           6
  0.00000000E+00  0.00000000E+00  0.00000000E+00  0.00000000E+00  0.00000000E+00
  0.00000000E+00
Integer atomic weights                     I   N=           6
          12          12           1           1           1           1
Real atomic weights                        R   N=           6
  1.20000000E+01  1.20000000E+01  1.00782504E+00  1.00782504E+00  1.00782504E+00
  1.00782504E+00
Atom fragment info                         I   N=           6
           0           0           0           0           0           0
Atom residue num                           I   N=           6
           0           0           0           0           0           0
Nuclear spins                              I   N=           6
           0           0           1           1           1           1
Nuclear ZEff                               R   N=           6
 -3.60000000E+00 -3.60000000E+00 -1.00000000E+00 -1.00000000E+00 -1.00000000E+00
 -1.00000000E+00
Nuclear ZNuc                               R   N=           6
  6.00000000E+00  6.00000000E+00  1.00000000E+00  1.00000000E+00  1.00000000E+00
  1.00000000E+00
Nuclear QMom                               R   N=           6
  0.00000000E+00  0.00000000E+00  0.00000000E+00  0.00000000E+00  0.00000000E+00
  0.00000000E+00
Nuclear GFac                               R   N=           6
  0.00000000E+00  0.00000000E+00  2.79284600E+00  2.79284600E+00  2.79284600E+00
  2.79284600E+00
MicOpt                                     I   N=           6
          -1          -1          -1          -1          -1          -1
Number of contracted shells                I               14
Number of primitive shells                 I               24
Pure/Cartesian d shells                    I                1
Pure/Cartesian f shells                    I                0
Highest angular momentum                   I                1
Largest degree of contraction              I                3
Shell types                                I   N=          14
           0          -1          -1           0          -1          -1
           0           0           0           0           0           0
           0           0
Number of primitives per shell             I   N=          14
           3           2           1           3           2           1
           2           1           2           1           2           1
           2           1
Shell to atom map                          I   N=          14
           1           1           1           2           2           2
           3           3           4           4           5           5
           6           6
Primitive exponents                        R   N=          24
  1.72256000E+02  2.59109000E+01  5.53335000E+00  3.66498000E+00  7.70545000E-01
  1.95857000E-01  1.72256000E+02  2.59109000E+01  5.53335000E+00  3.66498000E+00
  7.70545000E-01  1.95857000E-01  5.44717800E+00  8.24547240E-01  1.83191580E-01
  5.44717800E+00  8.24547240E-01  1.83191580E-01  5.44717800E+00  8.24547240E-01
  1.83191580E-01  5.44717800E+00  8.24547240E-01  1.83191580E-01
Contraction coefficients                   R   N=          24
  6.17669074E-02  3.58794043E-01  7.00713084E-01 -3.95895162E-01  1.21583436E+00
  1.00000000E+00  6.17669074E-02  3.58794043E-01  7.00713084E-01 -3.95895162E-01
  1.21583436E+00  1.00000000E+00  1.56284979E-01  9.04690877E-01  1.00000000E+00
  1.56284979E-01  9.04690877E-01  1.00000000E+00  1.56284979E-01  9.04690877E-01
  1.00000000E+00  1.56284979E-01  9.04690877E-01  1.00000000E+00
P(S=P) Contraction coefficients            R   N=          24
  0.00000000E+00  0.00000000E+00  0.00000000E+00  2.36459947E-01  8.60618806E-01
  1.00000000E+00  0.00000000E+00  0.00000000E+00  0.00000000E+00  2.36459947E-01
  8.60618806E-01  1.00000000E+00  0.00000000E+00  0.00000000E+00  0.00000000E+00
  0.00000000E+00  0.00000000E+00  0.00000000E+00  0.00000000E+00  0.00000000E+00
  0.00000000E+00  0.00000000E+00  0.00000000E+00  0.00000000E+00
Coordinates of each shell                  R   N=          42
 -8.94193009E-01  1.46757743E-01  7.65782794E-02 -8.94193009E-01  1.46757743E-01
  7.65782794E-02 -8.94193009E-01  1.46757743E-01  7.65782794E-02  1.61796642E+00
  2.29472008E-02  9.91792852E-01  1.61796642E+00  2.29472008E-02  9.91792852E-01
  1.61796642E+00  2.29472008E-02  9.91792852E-01 -2.03462360E+00  1.80338740E+00
  5.34859939E-01 -2.03462360E+00  1.80338740E+00  5.34859939E-01 -1.97089712E+00
 -1.40788945E+00 -7.76481625E-01 -1.97089712E+00 -1.40788945E+00 -7.76481625E-01
  8.44389183E-01  1.24170466E+00 -1.19471234E+00  8.44389183E-01  1.24170466E+00
 -1.19471234E+00  2.43735793E+00 -1.80690772E+00  3.67959772E-01  2.43735793E+00
 -1.80690772E+00  3.67959772E-01
Constraint Structure                       R   N=          18
 -8.94193009E-01  1.46757743E-01  7.65782794E-02  1.61796642E+00  2.29472008E-02
  9.91792852E-01 -2.03462360E+00  1.80338740E+00  5.34859939E-01 -1.97089712E+00
 -1.40788945E+00 -7.76481625E-01  8.44389183E-01  1.24170466E+00 -1.19471234E+00
  2.43735793E+00 -1.80690772E+00  3.67959772E-01
Num ILSW                                   I              100
ILSW                                       I   N=         100
           0           1           0           0           2           0
           0           0           0           0         402          -1
           0           0           0           0           2           0
           0           0           1           0           1           0
           1           1           0           0           0           0
           0           0      100000           0          -1           0
           0           0           0           0           0           0
           0           0           0           1           0           0
           0           0           1           0           0           0
           0           0           4          41           0           0
           0           0           5           0           0           0
           0           0           0           0           0           0
           0           0           0           0           0           0
           0           0           0           0           0           0
           0           0           0           0           0           0
           0           0           0           0           0           0
           0           0           0           0
Num RLSW                                   I               41
RLSW                                       R   N=          41
  8.00000000E-01  7.20000000E-01  1.00000000E+00  8.10000000E-01  2.00000000E-01
  0.00000000E+00  0.00000000E+00  1.00000000E+00  0.00000000E+00  0.00000000E+00
  0.00000000E+00  0.00000000E+00  1.00000000E+00  0.00000000E+00  0.00000000E+00
  0.00000000E+00  0.00000000E+00  1.00000000E+00  0.00000000E+00  0.00000000E+00
  0.00000000E+00  0.00000000E+00  1.00000000E+00  0.00000000E+00  0.00000000E+00
  0.00000000E+00  0.00000000E+00  1.00000000E+00  0.00000000E+00  0.00000000E+00
  0.00000000E+00  0.00000000E+00  1.00000000E+00  0.00000000E+00  0.00000000E+00
  0.00000000E+00  0.00000000E+00  0.00000000E+00  1.00000000E+00  1.00000000E+00
  0.00000000E+00
MxBond                                     I                4
NBond                                      I   N=           6
           4           2           1           1           1           1
IBond                                      I   N=          24
           2           3           4           5           1           6
           0           0           1           0           0           0
           1           0           0           0           1           0
           0           0           2           0           0           0
RBond                                      R   N=          24
  1.50000000E+00  1.00000000E+00  1.00000000E+00  1.00000000E+00  1.50000000E+00
  1.00000000E+00  0.00000000E+00  0.00000000E+00  1.00000000E+00  0.00000000E+00
  0.00000000E+00  0.00000000E+00  1.00000000E+00  0.00000000E+00  0.00000000E+00
  0.00000000E+00  1.00000000E+00  0.00000000E+00  0.00000000E+00  0.00000000E+00
  1.00000000E+00  0.00000000E+00  0.00000000E+00  0.00000000E+00
Virial Ratio                               R      2.008348231994374E+00
SCF Energy                                 R     -7.801792213092864E+01
Total Energy                               R     -7.801792213092864E+01
RMS Force                                  R      4.446722773318501E-06
RMS Density                                R      4.561662321837563E-09
External E-field                           R   N=          35
  0.00000000E+00  0.00000000E+00  0.00000000E+00  0.00000000E+00  0.00000000E+00
  0.00000000E+00  0.00000000E+00  0.00000000E+00  0.00000000E+00  0.00000000E+00
  0.00000000E+00  0.00000000E+00  0.00000000E+00  0.00000000E+00  0.00000000E+00
  0.00000000E+00  0.00000000E+00  0.00000000E+00  0.00000000E+00  0.00000000E+00
  0.00000000E+00  0.00000000E+00  0.00000000E+00  0.00000000E+00  0.00000000E+00
  0.00000000E+00  0.00000000E+00  0.00000000E+00  0.00000000E+00  0.00000000E+00
  0.00000000E+00  0.00000000E+00  0.00000000E+00  0.00000000E+00  0.00000000E+00
IOpCl                                      I                0
IROHF                                      I                0
Alpha Orbital Energies                     R   N=          26
 -1.01721700E+01 -1.01336343E+01 -8.22483891E-01 -5.82347564E-01 -4.88227630E-01
 -4.13318781E-01 -3.72234448E-01 -1.99602162E-01 -2.53264574E-02  7.67355136E-02
  1.25584892E-01  1.52266241E-01  2.11103491E-01  3.19188423E-01  6.84835466E-01
  7.17679049E-01  7.20428938E-01  7.73084121E-01  7.78942728E-01  8.49358913E-01
  9.32881947E-01  9.94295505E-01  1.04028569E+00  1.09806517E+00  1.62448712E+00
  1.63437339E+00
Alpha MO coefficients                      R   N=         676
  9.85808926E-01  1.08985396E-01  1.09128487E-03  1.12626755E-03 -7.18364083E-04
 -8.00693749E-02 -8.61903522E-03 -5.07677228E-03 -8.76397526E-04 -8.16509435E-03
 -1.60596564E-03  1.54566971E-03  2.15707284E-04 -3.36231537E-04  1.68221308E-02
 -1.22666914E-02 -8.90496923E-05  2.74321190E-04 -8.91727212E-04  1.56326031E-02
 -1.85532540E-03  1.22723732E-02  1.25112909E-03  1.20667170E-02 -5.54723168E-04
  2.47001916E-03  8.70456157E-03  2.39385314E-04 -1.11828894E-03  9.80011768E-04
 -1.05616920E-03  1.83784298E-02  1.13949751E-02 -8.89236073E-03  6.09690266E-03
  9.85822363E-01  1.07039959E-01 -2.74314827E-03 -2.70171907E-03 -3.93763145E-03
 -7.40723280E-02  1.27312545E-02  9.47931879E-03  1.44495043E-02 -3.83339274E-05
  4.42081952E-03 -1.34897879E-03 -1.07044902E-03  1.50426136E-03  1.11041624E-02
 -2.37789134E-04  1.80484115E-02 -1.74062888E-01  1.76189326E-01  1.13988256E-01
  1.59686559E-02  5.52342881E-04  4.39846205E-01  5.02154880E-02  3.91305933E-02
 -2.19046279E-02 -1.36712182E-01  1.39202710E-01 -1.15626043E-01 -1.21507551E-02
 -8.62059590E-02  3.00558046E-01 -2.64108708E-02 -3.02187421E-02 -6.87325441E-02
  7.15247079E-02 -1.32921232E-02  6.88569629E-02  3.71201850E-03  1.35392238E-01
 -5.69321411E-03  6.10013320E-02 -2.06587231E-02 -1.17209082E-01  1.15133486E-01
 -2.30267972E-01  4.62797442E-02 -4.62589308E-02  4.52414587E-01 -9.20787691E-02
  3.13702082E-02 -1.87766845E-02  1.30589271E-01 -1.29609715E-01 -1.34716812E-02
  8.75789110E-02  6.51015522E-02 -4.47097424E-01  3.65888797E-02  6.08767826E-02
  7.65393037E-02  1.64669841E-01  8.12276532E-02  1.40721995E-01  7.50332455E-02
 -2.73598198E-02 -9.72856456E-03 -1.39420897E-01 -6.05448631E-02  1.82837687E-02
 -1.86667546E-02  1.53301703E-01  2.98534107E-01  5.77335188E-02 -2.24428313E-02
  1.13982102E-01  2.43345103E-01  5.47328597E-02  1.82411219E-02 -1.27839893E-02
 -9.18051139E-02  1.97415316E-01 -2.71613641E-02 -9.98198361E-02 -6.28066065E-03
  9.51277189E-02 -8.69702018E-03  7.82365834E-02  3.32926155E-02 -2.10093458E-01
 -1.45292590E-01  1.43677085E-01  1.16382029E-01 -1.40015738E-01 -1.30618473E-01
  2.05182109E-03  3.13100620E-04 -1.68397267E-01  1.71090225E-01  2.39215005E-01
 -5.24851821E-02 -1.46063981E-01  1.32873162E-01  1.98429521E-01 -6.70966057E-02
  6.38085108E-02  7.34991738E-02 -1.11578799E-01  1.25423957E-01  2.69523679E-01
  1.25655456E-02 -7.43054274E-02  7.35925062E-02  2.04394009E-01  1.87336521E-01
 -1.02395698E-01 -8.29679150E-02 -1.71140118E-01 -1.69976643E-01  1.31882504E-01
  1.29468747E-01  4.16262670E-02 -4.85595855E-02 -1.75184655E-01  1.64968617E-01
 -2.53481250E-01 -1.88924719E-01 -1.37537371E-01  1.29242902E-01 -2.22525123E-01
  8.90026823E-03 -1.99647938E-02  3.14096612E-01 -5.41524992E-02 -1.03030590E-01
  1.10729732E-02  1.63039586E-01 -2.76778560E-02 -8.87188251E-02  8.52647781E-02
  9.42764685E-02 -3.53111753E-03 -5.05752956E-05  1.31186450E-01  2.27830297E-01
  1.51217484E-01  1.81936205E-01  3.78710917E-02 -3.57515448E-02 -1.22781434E-01
 -7.61601790E-02 -6.06979310E-03 -2.33384163E-01 -1.41745400E-01  2.73135627E-03
  9.40419329E-02 -1.11115889E-01  9.13333341E-02  1.78217447E-01  3.09275348E-01
  1.87545217E-01  5.71559022E-01  1.75556783E-01  2.99223119E-01  1.86885652E-01
 -8.04535922E-02 -1.47279897E-01  1.19811796E-01  2.57004215E-01  1.71586339E-02
  1.54354110E-01 -1.14951772E-01 -1.67919635E-01 -2.34766783E-02 -6.84077710E-03
  9.51674864E-02  1.16500449E-01 -2.87663548E-01  3.47452432E-01  2.25774471E-01
  2.34420246E-01 -4.74102656E-01 -9.55069540E-03  2.30577396E-02 -7.44301571E-02
 -1.34965056E-01  3.76780572E-01 -6.58754094E-02 -7.25246116E-02 -2.24842560E-01
  6.23867217E-01 -3.80539804E-02 -1.19304429E-01 -2.41079272E-02 -6.98087596E-02
 -1.46831015E-02 -7.53129188E-02 -3.81454604E-03  3.57853313E-03  4.90089030E-02
 -4.43821831E-02 -1.04126607E-01 -8.50292662E-02  1.92123664E-01 -4.78401586E-01
 -2.26360400E-01 -3.12968833E-01  4.81312004E-01  8.07856878E-02 -6.03413033E-02
 -2.89146598E-02 -1.16499065E-01  1.84316299E-01 -7.12581334E-01 -6.64057568E-02
 -1.91639998E-01  4.51459440E-01 -4.93752304E-02  2.56153793E-02 -3.43438478E-02
  8.47269463E-03  2.16738671E-01  1.53303535E+00  3.54696120E-03  2.66947309E-01
  1.11276946E-01 -6.95446085E-02  1.80509835E-01  1.25008659E-01  3.57773759E-02
 -1.34227860E+00  6.72226876E-01  3.11337929E-01  1.31263497E-01  3.76095930E-02
 -7.92904810E-03 -1.33244204E-01  1.19220732E-01  1.64703931E-02 -6.42944038E-01
 -2.51042954E-01  3.56982326E-01  1.25385172E-01  2.94324339E-02  6.30714437E-01
  9.11082799E-02  1.42418013E+00 -4.16183702E-02 -1.31766103E-01  5.89036772E-02
  8.41860398E-01  1.01374517E-01 -5.29057594E-02  9.91319796E-02 -2.23909330E-01
 -8.66142704E-02 -1.34430495E+00  1.71575961E-01 -7.53878639E-01 -3.06734338E-01
 -6.98587128E-02  3.09053657E-02  1.47585935E-02 -1.42496251E-01 -2.77966996E-02
  8.68772696E-01 -5.32980605E-02 -3.17447079E-01 -7.95759418E-02  1.01777866E-01
  1.60835649E+00 -1.71560904E-02 -1.45321175E-01 -1.26652294E-02  2.03954891E-01
 -9.53491257E-02 -9.43229977E-01  5.51442818E-02 -1.94937697E-02 -3.52917559E-02
  2.63796507E-01  1.11124228E-01 -7.94973117E-01 -4.72705595E-01  1.06245475E+00
  2.83367112E-01 -8.49335858E-02  3.61065497E-02 -2.07422631E-02 -2.45830960E-01
 -8.19977312E-02  1.32728234E+00 -1.67968053E-01 -8.71215073E-01 -4.17678615E-01
 -1.77866185E-02 -9.28415165E-01  4.14884178E-02  1.19699285E+00  6.27107206E-02
  7.25847818E-02  2.34716864E-03 -1.27349600E+00 -8.87079466E-02  2.51487751E-02
  2.47580782E-01  4.48092901E-02  1.10077366E-01  1.58111701E+00  1.85598452E+00
  1.65287194E-01  7.59943860E-01  9.33789066E-02 -2.07910111E-02  3.29262746E-01
 -1.21951132E-01  3.78730865E-02 -1.80829794E+00  1.70809730E+00 -3.77897804E-01
  4.26045746E-01  7.09562703E-02  1.38192365E-01  1.50081459E-02  7.47465913E-01
  1.01894610E-02 -9.64440967E-02 -5.94101787E-02 -4.87691540E-01  5.13777924E-03
 -5.19515019E-02 -5.37969594E-01  6.52186887E-02 -5.01324846E-01 -2.45479101E-01
  1.02805966E+00 -4.60397421E-02  5.76631909E-01 -1.47859881E-02 -4.48017500E-02
  4.48506647E-01 -1.95118468E-01  5.94537141E-02 -3.51194979E-01 -5.30639938E-01
  3.65398301E-01 -1.24837916E-01  5.79563996E-02  2.63012714E-01  2.89285192E-01
  1.90406739E-01  2.97668128E-01 -5.06147957E-01  2.69267894E-01 -1.91907152E-02
  9.42616280E-03  1.12647766E-02 -6.39473877E-01 -1.06192504E-01  6.69289338E-01
 -1.40042643E-02  1.14937812E+00 -1.71971683E-02 -7.40055451E-01 -3.84795597E-02
  1.09770437E-01 -4.61143969E-02 -2.00772359E-02  2.30202650E-01 -3.32335089E-01
  3.77199179E-02  7.13613187E-02 -6.36647744E-02  4.17854378E-01  1.00965220E-01
  1.38087058E-01  6.16441075E-02 -2.35863469E-01 -2.16591430E-01 -3.69991957E-02
 -3.62411889E-02 -5.12285181E-03  7.70808765E-02  8.73160823E-02 -5.46889641E-01
  1.58394005E-01  3.55163775E-01  1.27004746E-01  9.32906039E-01  3.27568319E-02
  4.22603700E-02  3.15518649E-02 -2.58330535E-01 -5.01482833E-01 -1.53654582E-01
 -3.92696367E-01  3.62416488E-01  4.69333941E-01  2.48090592E-01 -2.97131170E-01
 -1.40410513E-01  4.87019842E-01 -4.01320036E-03  1.26067091E-02 -1.75396772E-01
  4.01702002E-01  2.86385458E-02  3.38423849E-02  4.64811197E-02 -1.05124541E-01
  2.87130314E-01 -4.38014725E-01  1.68359636E-01  2.43382073E-01 -4.79605729E-01
  6.26425245E-01 -1.00334291E-02  1.66195922E-02 -7.21691161E-01 -3.62401391E-01
  3.74357657E-01 -3.31338831E-01  8.99098262E-01  3.33385378E-01 -4.24327575E-01
  2.97264443E-01 -2.67728844E-02  1.79869025E-01 -1.04467238E-01 -1.17503824E-01
  2.20193373E-01 -2.02005489E-01  4.65248801E-02  2.42069276E-02 -5.97414374E-02
 -3.67473256E-01  1.69792312E-01 -1.55176635E-01  2.30807352E-01  6.58640376E-01
 -2.76046087E-01  1.30687870E-01  4.66009668E-03 -2.33187217E-02 -2.22627011E-01
 -2.63764603E-02 -9.39108397E-01 -6.91027144E-01  3.94536040E-01 -5.44562325E-02
  1.11041128E+00  8.94883228E-02  8.99336464E-02  4.25008919E-02  2.76348591E-02
 -3.38655676E-01  7.26042520E-01 -2.04358411E-01  1.77776503E-01 -6.34061172E-02
  9.55554060E-02  7.28876001E-02  3.16312302E-01  5.07536853E-02 -3.84817482E-01
 -2.36203521E-01 -7.63288463E-01 -2.63105285E-01  9.59939547E-03 -8.56383772E-03
  3.60174210E-01 -5.44054207E-01  1.14552892E-01 -1.56068738E-01 -6.31159218E-01
  1.01343469E+00 -4.45715962E-02 -2.69953389E-01  3.30181264E-01 -3.51366483E-01
 -1.61109379E-01 -8.30219266E-01  7.26221973E-01  1.49454131E-01  3.64861409E-01
 -2.04783238E-03  1.40145148E-01  1.33582372E-01 -3.70783155E-01 -3.76706795E-01
 -2.67012250E-01  1.08248085E-01  1.00686053E+00  8.46570274E-01 -1.40535623E-02
  1.90230201E-01  6.40147819E-02  5.19516024E-01  1.34162149E-01 -3.48749296E-01
  1.47391560E-01 -1.03234495E+00 -1.49707578E-01  2.90889320E-01 -7.73264642E-01
  3.05645251E-01  4.76284654E-01 -8.05767801E-01  1.24797516E+00  2.82569499E-01
 -6.82294873E-01 -3.97442049E-02  2.22771428E-02 -3.84932175E-01 -7.16744939E-01
 -3.06528574E-01  1.10725777E-01  5.95561094E-01  1.35039275E+00  5.35557781E-01
 -2.04516699E-02 -9.42283245E-03 -1.20727878E-01 -1.17358089E-01  5.38558474E-02
 -2.17605860E-01  3.36031347E-01 -1.82647194E-01 -2.20044307E-01 -4.75855134E-02
 -5.61163665E-01 -9.31713934E-01  1.67062599E+00  1.42148121E-03 -4.25214757E-01
 -2.64828561E-01  7.75356658E-02 -4.42119234E-02  8.98476600E-02 -4.77427736E-01
  3.00487585E-01  2.15239473E-02  2.95167460E-01  1.10831917E+00 -2.47453589E-01
  2.06291518E-01  1.63343853E-02 -3.08375058E-02 -4.01658438E-01  4.34007209E-01
  1.25566697E-01 -3.55139657E-01  1.03458316E+00 -6.91124459E-01 -4.44217844E-02
 -8.70446650E-01  1.22242100E+00 -1.26806595E-01  2.70607358E-01 -5.30381424E-02
 -6.94838014E-02  5.54142882E-01 -1.14279492E+00  1.28236548E-02 -9.02189725E-02
  1.32689769E-01  2.23397804E-02  1.16837853E-02  2.02376838E-01 -1.38074221E-01
 -8.15275606E-01 -2.77565268E-01  6.26062398E-02 -3.11358933E-01 -1.84564895E-01
  4.72086764E-02 -1.08579176E-01  3.31376747E-01  1.02302491E-01  4.75767936E-01
  3.72654726E-01  7.03823329E-01 -3.01874709E-01 -4.96371894E-01 -6.06408703E-03
  1.54859646E-01  7.79399354E-02  9.78747963E-01 -7.10332069E-01 -1.44287636E-02
 -1.88889865E+00 -1.25029937E-02 -3.91600791E-02 -5.30838772E-04  4.16687191E+00
  7.81698762E-01  1.51127071E-01  2.48355890E-01  4.31135383E-03  6.08286421E-01
 -2.52327521E-02 -4.26826263E-02  6.16007804E-02 -2.14275579E+00  1.02757076E+00
  1.62692456E-01  2.05029003E-01 -1.42762602E-01 -6.64366121E-01 -6.41130810E-02
 -5.50992161E-01 -1.75134690E-01 -3.78276275E-01  1.47494773E-01  7.54504713E-02
 -1.85463391E-03 -5.70338190E-01 -7.65149108E-02 -1.32427987E-01  2.76930253E-02
  2.08078101E-02 -4.49074293E-01  8.90454790E-01 -2.24225812E-01 -8.08204978E-03
 -1.80140460E+00  7.24447956E-02  9.08814671E-02  1.96915305E-01  3.15298755E+00
 -5.01176903E-01 -6.83644978E-01 -9.02405055E-01 -1.04528453E-01 -5.23677417E-01
  1.99104338E-01 -3.41636748E-02 -3.01744273E-01 -6.66545255E-01 -2.55087150E-01
 -8.84008921E-01
Total SCF Density                          R   N=         351
  2.03887268E+00  1.19124372E-01  1.20322048E-01 -2.54060325E-03  7.34555144E-03
  3.27286197E-01  5.41398418E-03 -5.08444344E-03 -2.28612477E-02  3.07617074E-01
 -9.25294794E-03  1.24319416E-02  4.88681702E-02  2.93494466E-02  2.53976778E-01
 -4.51163802E-01  2.77565468E-01  2.60051452E-02 -2.36501294E-03  2.96147197E-02
  9.96623212E-01 -3.13092271E-02  1.37648564E-02  2.20946369E-01 -1.26292341E-02
  2.32895199E-02  9.10046204E-02  1.69078242E-01 -1.07299049E-02 -1.84752209E-03
 -2.16114272E-02  2.37110700E-01  2.32813841E-02 -1.16860205E-02 -2.16300445E-02
  1.92406890E-01  1.81827283E-03  7.37570245E-04  8.46211912E-03  1.04065699E-02
  2.14626102E-01 -1.89953213E-02 -9.52664049E-03  1.93721289E-02  2.03203186E-01
  1.07608964E-02 -1.30541058E-02 -4.11727937E-02  1.74286887E-02 -4.74615062E-02
  9.01664023E-02  3.76396672E-02 -2.72150059E-02 -3.63708601E-02  2.04983365E+00
 -1.43300239E-02  1.48339975E-02  5.03389761E-02 -1.36426090E-02  4.99856216E-02
 -3.18394597E-02 -1.63890231E-03  6.94837894E-03  5.00641925E-02  1.09476697E-01
  1.21223064E-01  8.30025717E-02 -8.32851032E-02 -2.26861601E-01  4.18804748E-02
 -1.35712729E-01 -3.19715263E-01 -1.88543180E-01  4.71533932E-02 -8.16144100E-02
 -2.45641305E-02  2.44864290E-03  3.15618460E-01  9.75613109E-03 -8.36438605E-03
 -1.96263937E-03  2.24278565E-02 -1.49995116E-02 -5.26259183E-02 -1.25957377E-02
  5.87099393E-02  5.68095506E-02 -2.66537908E-02  1.27056516E-02  2.40346292E-02
  3.15662843E-01  1.91670565E-02 -1.77728234E-02 -1.10151720E-01 -3.25960389E-02
  1.00716780E-01 -7.75765944E-02 -8.83885269E-02 -8.08429215E-03  1.29214823E-01
 -2.85186394E-02  1.33552404E-02  4.37505766E-02  1.01970617E-01  1.47885434E-01
  7.37218781E-02 -3.14584947E-02  9.01448804E-03 -8.26715906E-02  1.46699060E-01
 -4.40345785E-01 -1.56024759E-01  2.56455614E-02  2.01299141E-01 -5.11902542E-01
  3.24572543E-01  2.11627044E-01  1.67571664E-01  1.75675315E-01  1.41082056E+00
  3.34602801E-03 -3.16938758E-02 -1.29318773E-01  3.01421371E-02 -8.29231872E-02
 -1.32280283E-01 -1.08608307E-01  4.35117301E-02 -3.52824276E-02  4.05198657E-03
  1.32498581E-02  1.73009208E-01  9.26254422E-02  4.49722857E-02  1.61427728E-01
  1.19896534E-01  1.97719783E-02 -1.89507078E-02 -4.45349767E-02 -1.86498575E-02
 -1.98521077E-02 -9.68172336E-02 -4.78493622E-02  2.23183692E-02  4.86749984E-02
 -1.06942570E-02  2.16845060E-02  6.61729623E-02  2.53569623E-01  1.07193927E-01
  2.08380999E-01  9.92684029E-02  2.19160277E-01  1.35308059E-02 -1.09045243E-02
 -9.32101375E-02 -3.28306851E-02  6.97249502E-02 -5.17659188E-02 -7.27306846E-02
 -7.42421921E-03  1.03200863E-01  1.39643104E-02  1.14107871E-02  3.70487332E-02
  1.20349169E-01  1.29015485E-01  1.41185038E-01  4.82401709E-02  1.17907657E-01
  1.18160126E-01 -6.05555519E-02  5.76063984E-02 -1.14501216E-01  1.74562935E-01
  4.94180752E-02  1.92428136E-01 -6.56477966E-02  1.29932974E-01  2.72844454E-02
  1.82136739E-02 -1.67950721E-02  1.95872894E-02 -4.66162285E-02  8.38436661E-03
 -9.97973527E-02  1.20016215E-02 -5.26314761E-02 -1.10385880E-03  1.87746948E-01
  1.51642202E-02  1.76790482E-02 -9.01657082E-02  1.44657654E-01  3.99034053E-02
  7.14274169E-02 -4.77796419E-02  9.33704124E-02  5.89030612E-03  4.37940577E-02
 -3.14716320E-02  2.90627951E-02 -1.15437785E-01 -1.66630855E-02 -1.52686169E-01
 -1.03053901E-02 -1.04089853E-01 -3.03854063E-02  1.46387484E-01  1.47642650E-01
 -5.99621157E-02  5.58177301E-02 -1.07223990E-01 -1.64675316E-01 -8.58500830E-02
  1.53738416E-01 -6.99737670E-02 -1.15459341E-01 -4.78428542E-02 -5.31573219E-03
 -3.25970508E-03  4.42970155E-02  3.73728711E-02  3.78575380E-02  3.93232531E-02
  4.76536035E-02  6.00886939E-02  4.60281227E-02 -3.84141641E-02 -6.73509796E-02
  1.87081397E-01  1.91047765E-02  8.26086474E-03 -1.13377109E-01 -1.47214110E-01
 -6.65183160E-02 -3.55585158E-02 -9.54097640E-02 -8.64774783E-02 -3.48520604E-03
 -3.50111106E-02  2.13896340E-02  1.03218310E-01  1.33188100E-01  9.26203482E-02
  2.13776054E-01  9.49275182E-02  1.47381973E-01  9.73368760E-02 -7.27925082E-02
 -1.04007725E-01  1.61211993E-01  1.99680610E-01 -2.14540968E-02  2.22439487E-02
  9.49795072E-02  6.96913232E-02 -1.29327647E-01  4.81402650E-02  6.04464591E-02
  6.72898752E-02 -1.12235918E-01 -1.44903967E-02  1.74863085E-02  6.41152124E-03
  8.32345577E-02 -9.82497248E-02  7.25402595E-03  3.35499100E-02  4.42896005E-02
 -6.73081469E-02 -1.75134417E-02 -4.28651013E-02 -1.12016248E-02 -7.61888829E-03
  1.73039588E-01  6.24636229E-02 -3.92257004E-02 -2.16141154E-02  6.19503986E-02
 -1.84405866E-01 -1.60849694E-01 -2.89775930E-02  6.98294787E-02 -1.26352330E-01
  1.75208851E-02 -2.29415304E-03  1.53338493E-01  1.53062976E-01 -3.83913795E-02
  7.06684583E-02  1.22328439E-01  1.26531583E-01 -1.01540012E-02 -4.12994214E-02
 -5.93984447E-02  1.76886286E-02  7.24727945E-02  1.55750325E-01  2.37129274E-01
  9.65252132E-03 -1.18863340E-02 -3.39861613E-02  1.79722172E-02 -1.53691721E-02
 -8.34502443E-02 -4.76475084E-02  1.39919954E-03 -4.93467374E-02 -4.81209100E-02
  4.64490456E-02  8.87651803E-02 -1.98096232E-01 -6.22570198E-02  1.32343915E-01
  6.03728402E-04 -1.44067302E-01 -7.76858677E-02  3.90972763E-02  7.81717247E-02
 -2.76244514E-02 -6.07816448E-02 -2.54991698E-02 -4.20077552E-02  1.92475505E-01
  2.47517384E-02 -2.13793435E-02 -8.30240645E-02  4.56957959E-02 -3.77997661E-02
 -7.07806341E-02 -6.05963993E-02  1.11842898E-02 -7.20766729E-02  4.37968578E-02
 -4.27711823E-03  1.03770525E-01 -2.14234842E-01 -6.53676367E-02 -5.29264599E-02
  2.32082894E-03 -1.60434676E-01 -7.96233651E-02  6.76311289E-02  1.14528332E-01
 -3.30951351E-02 -7.90753622E-02 -4.20963580E-02 -4.14799306E-02  1.78706493E-01
  1.99090875E-01
Mulliken Charges                           R   N=           6
 -5.15159546E-01 -3.07813728E-01  2.39183927E-01  1.94734685E-01  2.30601766E-01
  1.58452897E-01
ONIOM Charges                              I   N=          16
           0           0           0           0           0           0
           0           0           0           0           0           0
           0           0           0           0
ONIOM Multiplicities                       I   N=          16
           1           0           0           0           0           0
           0           0           0           0           0           0
           0           0           0           0
Atom Layers                                I   N=           6
           1           1           1           1           1           1
Atom Modifiers                             I   N=           6
           0           0           0           0           0           0
Force Field                                I                0
Int Atom Modified Types                    I   N=           6
           0           0           0           0           0           0
Link Atoms                                 I   N=           6
           0           0           0           0           0           0
Atom Modified MM Charges                   R   N=           6
  0.00000000E+00  0.00000000E+00  0.00000000E+00  0.00000000E+00  0.00000000E+00
  0.00000000E+00
Link Distances                             R   N=          24