 Entering Gaussian System, Link 0=/Johnny/gnovikov/gauss/g09/g09
 Initial command:
 /Johnny/gnovikov/gauss/g09/l1.exe "/Johnny/gnovikov/gauss/scr/Gau-1222.inp" -scrdir="/Johnny/gnovikov/gauss/scr/"
 Entering Link 1 = /Johnny/gnovikov/gauss/g09/l1.exe PID=      1226.
  
 Copyright (c) 1988,1990,1992,1993,1995,1998,2003,2009,2013,
            Gaussian, Inc.  All Rights Reserved.
  
 This is part of the Gaussian(R) 09 program.  It is based on
 the Gaussian(R) 03 system (copyright 2003, Gaussian, Inc.),
 the Gaussian(R) 98 system (copyright 1998, Gaussian, Inc.),
 the Gaussian(R) 94 system (copyright 1995, Gaussian, Inc.),
 the Gaussian 92(TM) system (copyright 1992, Gaussian, Inc.),
 the Gaussian 90(TM) system (copyright 1990, Gaussian, Inc.),
 the Gaussian 88(TM) system (copyright 1988, Gaussian, Inc.),
 the Gaussian 86(TM) system (copyright 1986, Carnegie Mellon
 University), and the Gaussian 82(TM) system (copyright 1983,
 Carnegie Mellon University). Gaussian is a federally registered
 trademark of Gaussian, Inc.
  
 This software contains proprietary and confidential information,
 including trade secrets, belonging to Gaussian, Inc.
  
 This software is provided under written license and may be
 used, copied, transmitted, or stored only in accord with that
 written license.
  
 The following legend is applicable only to US Government
 contracts under FAR:
  
                    RESTRICTED RIGHTS LEGEND
  
 Use, reproduction and disclosure by the US Government is
 subject to restrictions as set forth in subparagraphs (a)
 and (c) of the Commercial Computer Software - Restricted
 Rights clause in FAR 52.227-19.
  
 Gaussian, Inc.
 340 Quinnipiac St., Bldg. 40, Wallingford CT 06492
  
  
 ---------------------------------------------------------------
 Warning -- This program may not be used in any manner that
 competes with the business of Gaussian, Inc. or will provide
 assistance to any competitor of Gaussian, Inc.  The licensee
 of this program is prohibited from giving any competitor of
 Gaussian, Inc. access to this program.  By using this program,
 the user acknowledges that Gaussian, Inc. is engaged in the
 business of creating and licensing software in the field of
 computational chemistry and represents and warrants to the
 licensee that it is not a competitor of Gaussian, Inc. and that
 it will not use this program in any manner prohibited above.
 ---------------------------------------------------------------
  

 Cite this work as:
 Gaussian 09, Revision D.01,
 M. J. Frisch, G. W. Trucks, H. B. Schlegel, G. E. Scuseria, 
 M. A. Robb, J. R. Cheeseman, G. Scalmani, V. Barone, B. Mennucci, 
 G. A. Petersson, H. Nakatsuji, M. Caricato, X. Li, H. P. Hratchian, 
 A. F. Izmaylov, J. Bloino, G. Zheng, J. L. Sonnenberg, M. Hada, 
 M. Ehara, K. Toyota, R. Fukuda, J. Hasegawa, M. Ishida, T. Nakajima, 
 Y. Honda, O. Kitao, H. Nakai, T. Vreven, J. A. Montgomery, Jr., 
 J. E. Peralta, F. Ogliaro, M. Bearpark, J. J. Heyd, E. Brothers, 
 K. N. Kudin, V. N. Staroverov, T. Keith, R. Kobayashi, J. Normand, 
 K. Raghavachari, A. Rendell, J. C. Burant, S. S. Iyengar, J. Tomasi, 
 M. Cossi, N. Rega, J. M. Millam, M. Klene, J. E. Knox, J. B. Cross, 
 V. Bakken, C. Adamo, J. Jaramillo, R. Gomperts, R. E. Stratmann, 
 O. Yazyev, A. J. Austin, R. Cammi, C. Pomelli, J. W. Ochterski, 
 R. L. Martin, K. Morokuma, V. G. Zakrzewski, G. A. Voth, 
 P. Salvador, J. J. Dannenberg, S. Dapprich, A. D. Daniels, 
 O. Farkas, J. B. Foresman, J. V. Ortiz, J. Cioslowski, 
 and D. J. Fox, Gaussian, Inc., Wallingford CT, 2013.
 
 ******************************************
 Gaussian 09:  AM64L-G09RevD.01 24-Apr-2013
                14-Oct-2017 
 ******************************************
 %RWF=./tmp/2690320423575854410/rwf
 %Int=./tmp/2690320423575854410/int
 %D2E=./tmp/2690320423575854410/d2e
 %Scr=./tmp/2690320423575854410/skr
 %NoSave
 %chk=./tmp/2690320423575854410/chk
 %nproc=1
 Will use up to    1 processors via shared memory.
 %mem=1000mb
 ------------------------
 # B3lyp/3-21g nosym freq
 ------------------------
 1/10=4,30=1,38=1/1,3;
 2/12=2,15=1,17=6,18=5,40=1/2;
 3/5=5,11=2,16=1,25=1,30=1,71=2,74=-5,140=1/1,2,3;
 4//1;
 5/5=2,38=5,98=1/2;
 8/6=4,10=90,11=11/1;
 11/6=1,8=1,9=11,15=111,16=1,31=1/1,2,10;
 10/6=1,31=1/2;
 6/7=2,8=2,9=2,10=2,18=1,28=1/1;
 7/8=1,10=1,25=1,30=1/1,2,3,16;
 1/10=4,30=1/3;
 99//99;


 Symbolic Z-matrix:
 Charge =  0 Multiplicity = 1
 6                    -0.47319   0.07766   0.04052 
 6                     0.85619   0.01214   0.52483 
 1                    -1.07668   0.95431   0.28304 
 1                    -1.04295  -0.74502  -0.4109 
 1                     0.44683   0.65708  -0.63221 
 1                     1.28979  -0.95617   0.19472 
 

 GradGradGradGradGradGradGradGradGradGradGradGradGradGradGradGradGradGrad
 Berny optimization.
 Initialization pass.
 Trust Radius=3.00D-01 FncErr=1.00D-07 GrdErr=1.00D-07
 Number of steps in this run=      2 maximum allowed number of steps=      2.
 GradGradGradGradGradGradGradGradGradGradGradGradGradGradGradGradGradGrad

                          Input orientation:                          
 ---------------------------------------------------------------------
 Center     Atomic      Atomic             Coordinates (Angstroms)
 Number     Number       Type             X           Y           Z
 ---------------------------------------------------------------------
      1          6           0       -0.473187    0.077661    0.040523
      2          6           0        0.856191    0.012143    0.524834
      3          1           0       -1.076676    0.954312    0.283036
      4          1           0       -1.042954   -0.745023   -0.410896
      5          1           0        0.446832    0.657082   -0.632215
      6          1           0        1.289794   -0.956174    0.194716
 ---------------------------------------------------------------------
                    Distance matrix (angstroms):
                    1          2          3          4          5
     1  C    0.000000
     2  C    1.416366   0.000000
     3  H    1.091572   2.163822   0.000000
     4  H    1.097827   2.248476   1.835869   0.000000
     5  H    1.278569   1.386464   1.801973   2.057751   0.000000
     6  H    2.049559   1.111138   3.042686   2.419311   1.999249
                    6
     6  H    0.000000
 Symmetry turned off by external request.
 Stoichiometry    C2H4
 Framework group  C1[X(C2H4)]
 Deg. of freedom    12
 Full point group                 C1      NOp   1
 Rotational constants (GHZ):    127.7139040     28.4990744     26.1555927
 Standard basis: 3-21G (6D, 7F)
    26 basis functions,    42 primitive gaussians,    26 cartesian basis functions
     8 alpha electrons        8 beta electrons
       nuclear repulsion energy        32.8068342106 Hartrees.
 NAtoms=    6 NActive=    6 NUniq=    6 SFac= 1.00D+00 NAtFMM=   60 NAOKFM=F Big=F
 Integral buffers will be    131072 words long.
 Raffenetti 2 integral format.
 Two-electron integral symmetry is turned off.
 One-electron integrals computed using PRISM.
 NBasis=    26 RedAO= T EigKep=  2.02D-02  NBF=    26
 NBsUse=    26 1.00D-06 EigRej= -1.00D+00 NBFU=    26
 ExpMin= 1.83D-01 ExpMax= 1.72D+02 ExpMxC= 1.72D+02 IAcc=1 IRadAn=         1 AccDes= 0.00D+00
 Harris functional with IExCor=  402 and IRadAn=       1 diagonalized for initial guess.
 HarFok:  IExCor=  402 AccDes= 0.00D+00 IRadAn=         1 IDoV= 1 UseB2=F ITyADJ=14
 ICtDFT=  3500011 ScaDFX=  1.000000  1.000000  1.000000  1.000000
 FoFCou: FMM=F IPFlag=           0 FMFlag=      100000 FMFlg1=           0
         NFxFlg=           0 DoJE=T BraDBF=F KetDBF=T FulRan=T
         wScrn=  0.000000 ICntrl=     500 IOpCl=  0 I1Cent=   200000004 NGrid=           0
         NMat0=    1 NMatS0=      1 NMatT0=    0 NMatD0=    1 NMtDS0=    0 NMtDT0=    0
 Symmetry not used in FoFCou.
 Keep R1 ints in memory in canonical form, NReq=942464.
 Requested convergence on RMS density matrix=1.00D-08 within 128 cycles.
 Requested convergence on MAX density matrix=1.00D-06.
 Requested convergence on             energy=1.00D-06.
 No special actions if energy rises.
 Integral accuracy reduced to 1.0D-05 until final iterations.
 Initial convergence to 1.0D-05 achieved.  Increase integral accuracy.
 SCF Done:  E(RB3LYP) =  -78.0179221309     A.U. after   13 cycles
            NFock= 13  Conv=0.46D-08     -V/T= 2.0083
 DoSCS=F DFT=T ScalE2(SS,OS)=  1.000000  1.000000
 Range of M.O.s used for correlation:     1    26
 NBasis=    26 NAE=     8 NBE=     8 NFC=     0 NFV=     0
 NROrb=     26 NOA=     8 NOB=     8 NVA=    18 NVB=    18
 Symmetrizing basis deriv contribution to polar:
 IMax=3 JMax=2 DiffMx= 0.00D+00
 G2DrvN: will do     7 centers at a time, making    1 passes.
 Calling FoFCou, ICntrl=  3107 FMM=F I1Cent=   0 AccDes= 0.00D+00.
 End of G2Drv F.D. properties file   721 does not exist.
 End of G2Drv F.D. properties file   722 does not exist.
 End of G2Drv F.D. properties file   788 does not exist.
          IDoAtm=111111
          Differentiating once with respect to electric field.
                with respect to dipole field.
          Differentiating once with respect to nuclear coordinates.
 Keep R1 ints in memory in canonical form, NReq=921677.
          There are    21 degrees of freedom in the 1st order CPHF.  IDoFFX=6 NUNeed=     3.
     18 vectors produced by pass  0 Test12= 6.86D-16 4.76D-09 XBig12= 2.31D+01 2.57D+00.
 AX will form    18 AO Fock derivatives at one time.
     18 vectors produced by pass  1 Test12= 6.86D-16 4.76D-09 XBig12= 1.61D+00 4.28D-01.
     18 vectors produced by pass  2 Test12= 6.86D-16 4.76D-09 XBig12= 1.04D-02 3.86D-02.
     18 vectors produced by pass  3 Test12= 6.86D-16 4.76D-09 XBig12= 1.39D-05 1.06D-03.
     17 vectors produced by pass  4 Test12= 6.86D-16 4.76D-09 XBig12= 4.15D-09 2.06D-05.
      3 vectors produced by pass  5 Test12= 6.86D-16 4.76D-09 XBig12= 1.16D-12 2.79D-07.
 InvSVY:  IOpt=1 It=  1 EMax= 8.88D-16
 Solved reduced A of dimension    92 with    21 vectors.
 Isotropic polarizability for W=    0.000000       21.20 Bohr**3.
 End of Minotr F.D. properties file   721 does not exist.
 End of Minotr F.D. properties file   722 does not exist.
 End of Minotr F.D. properties file   788 does not exist.

 **********************************************************************

            Population analysis using the SCF density.

 **********************************************************************

 Alpha  occ. eigenvalues --  -10.17217 -10.13363  -0.82248  -0.58235  -0.48823
 Alpha  occ. eigenvalues --   -0.41332  -0.37223  -0.19960
 Alpha virt. eigenvalues --   -0.02533   0.07674   0.12558   0.15227   0.21110
 Alpha virt. eigenvalues --    0.31919   0.68484   0.71768   0.72043   0.77308
 Alpha virt. eigenvalues --    0.77894   0.84936   0.93288   0.99430   1.04029
 Alpha virt. eigenvalues --    1.09807   1.62449   1.63437
          Condensed to atoms (all electrons):
               1          2          3          4          5          6
     1  C    5.626593   0.221164   0.369185   0.289907   0.073936  -0.065625
     2  C    0.221164   5.757577  -0.059519  -0.034751   0.112962   0.310380
     3  H    0.369185  -0.059519   0.524492  -0.049446  -0.030084   0.006187
     4  H    0.289907  -0.034751  -0.049446   0.595015   0.018786  -0.014245
     5  H    0.073936   0.112962  -0.030084   0.018786   0.611367  -0.017569
     6  H   -0.065625   0.310380   0.006187  -0.014245  -0.017569   0.622419
 Mulliken charges:
               1
     1  C   -0.515160
     2  C   -0.307814
     3  H    0.239184
     4  H    0.194735
     5  H    0.230602
     6  H    0.158453
 Sum of Mulliken charges =   0.00000
 Mulliken charges with hydrogens summed into heavy atoms:
               1
     1  C    0.149361
     2  C   -0.149361
 APT charges:
               1
     1  C    0.109609
     2  C   -0.149468
     3  H    0.010195
     4  H   -0.005706
     5  H    0.041797
     6  H   -0.006427
 Sum of APT charges =   0.00000
 APT charges with hydrogens summed into heavy atoms:
               1
     1  C    0.155895
     2  C   -0.155895
 Electronic spatial extent (au):  <R**2>=             86.7930
 Charge=              0.0000 electrons
 Dipole moment (field-independent basis, Debye):
    X=             -1.7081    Y=             -0.7513    Z=             -1.7156  Tot=              2.5348
 Quadrupole moment (field-independent basis, Debye-Ang):
   XX=            -15.5844   YY=            -13.6470   ZZ=            -15.2199
   XY=             -1.7788   XZ=             -1.8975   YZ=             -1.1417
 Traceless Quadrupole moment (field-independent basis, Debye-Ang):
   XX=             -0.7673   YY=              1.1701   ZZ=             -0.4028
   XY=             -1.7788   XZ=             -1.8975   YZ=             -1.1417
 Octapole moment (field-independent basis, Debye-Ang**2):
  XXX=            -10.9552  YYY=             -1.9407  ZZZ=             -9.6953  XYY=             -3.4049
  XXY=             -2.5504  XXZ=             -5.1272  XZZ=             -3.4981  YZZ=             -1.5870
  YYZ=             -3.3834  XYZ=             -1.8646
 Hexadecapole moment (field-independent basis, Debye-Ang**3):
 XXXX=            -70.4864 YYYY=            -26.2654 ZZZZ=            -28.3901 XXXY=             -1.1103
 XXXZ=            -11.3421 YYYX=              0.8180 YYYZ=             -0.6390 ZZZX=             -9.5938
 ZZZY=             -1.8187 XXYY=            -14.9958 XXZZ=            -17.4203 YYZZ=             -9.2368
 XXYZ=             -1.2541 YYXZ=             -3.4001 ZZXY=             -0.2066
 N-N= 3.280683421064D+01 E-N=-2.455533782646D+02  KE= 7.737200270250D+01
  Exact polarizability:  27.168  -2.006  19.758   3.599   0.168  16.680
 Approx polarizability:  40.040  -2.059  25.650   7.832  -0.893  25.755
 Calling FoFJK, ICntrl=    100127 FMM=F ISym2X=0 I1Cent= 0 IOpClX= 0 NMat=1 NMatS=1 NMatT=0.
 Full mass-weighted force constant matrix:
 Low frequencies ----1200.2390  -28.8025   -0.0002    0.0003    0.0007   20.6589
 Low frequencies ---   41.7584  983.2248 1080.1584
 ******    1 imaginary frequencies (negative Signs) ****** 
 Diagonal vibrational polarizability:
        1.7975984       0.5465622       1.5496574
 Harmonic frequencies (cm**-1), IR intensities (KM/Mole), Raman scattering
 activities (A**4/AMU), depolarization ratios for plane and unpolarized
 incident light, reduced masses (AMU), force constants (mDyne/A),
 and normal coordinates:
                      1                      2                      3
                      A                      A                      A
 Frequencies --  -1200.2387               983.2227              1080.1583
 Red. masses --      1.1696                 1.0867                 1.3006
 Frc consts  --      0.9927                 0.6190                 0.8940
 IR Inten    --     10.2153                38.6104                39.0392
  Atom  AN      X      Y      Z        X      Y      Z        X      Y      Z
     1   6     0.02   0.05  -0.05    -0.01   0.05   0.05    -0.08  -0.06   0.10
     2   6     0.04  -0.02   0.09     0.05   0.00   0.00     0.07   0.04  -0.01
     3   1    -0.06  -0.09   0.22    -0.39  -0.12  -0.34     0.10   0.17  -0.24
     4   1     0.06   0.06  -0.12     0.49  -0.22  -0.07    -0.06   0.39  -0.76
     5   1    -0.78  -0.27  -0.47     0.04  -0.03   0.04     0.07  -0.38  -0.04
     6   1    -0.02  -0.03  -0.08    -0.55  -0.20  -0.26     0.06   0.02   0.02
                      4                      5                      6
                      A                      A                      A
 Frequencies --   1162.3271              1241.7752              1309.1526
 Red. masses --      1.0963                 2.9134                 1.2646
 Frc consts  --      0.8726                 2.6469                 1.2770
 IR Inten    --     14.7766                13.4633                24.2339
  Atom  AN      X      Y      Z        X      Y      Z        X      Y      Z
     1   6     0.02   0.00   0.02     0.21   0.05   0.16     0.06  -0.07  -0.03
     2   6    -0.05  -0.03   0.06    -0.28  -0.04  -0.14    -0.06   0.10   0.03
     3   1     0.08   0.16  -0.38     0.04  -0.05   0.08     0.32  -0.06   0.48
     4   1    -0.07  -0.04   0.20     0.65   0.00  -0.31    -0.09   0.06  -0.04
     5   1     0.08  -0.22  -0.12    -0.05  -0.24  -0.27     0.29  -0.28  -0.10
     6   1     0.26   0.37  -0.70     0.25   0.11   0.31    -0.59  -0.07  -0.32
                      7                      8                      9
                      A                      A                      A
 Frequencies --   1425.3944              1590.9994              2019.8123
 Red. masses --      1.2402                 1.1162                 1.0607
 Frc consts  --      1.4846                 1.6647                 2.5495
 IR Inten    --     19.0935                 0.6173                 8.6935
  Atom  AN      X      Y      Z        X      Y      Z        X      Y      Z
     1   6    -0.10   0.09  -0.04    -0.10  -0.01  -0.02     0.04   0.02  -0.04
     2   6     0.04  -0.03   0.01     0.01   0.00   0.00    -0.01   0.02  -0.03
     3   1    -0.27  -0.18   0.43     0.60   0.42   0.12    -0.02  -0.02  -0.01
     4   1     0.21  -0.17   0.03     0.52  -0.37  -0.03    -0.02   0.03   0.07
     5   1     0.49  -0.50  -0.12    -0.14   0.07   0.10    -0.31  -0.52   0.79
     6   1     0.32   0.10   0.04     0.03   0.01  -0.02     0.00   0.03  -0.01
                     10                     11                     12
                      A                      A                      A
 Frequencies --   2927.7206              3014.8352              3131.6942
 Red. masses --      1.0801                 1.0646                 1.0990
 Frc consts  --      5.4549                 5.7012                 6.3502
 IR Inten    --     87.1069                55.4296                23.1402
  Atom  AN      X      Y      Z        X      Y      Z        X      Y      Z
     1   6     0.00  -0.01   0.00     0.05   0.04   0.02    -0.03   0.08   0.03
     2   6    -0.04   0.07   0.02    -0.01   0.01   0.00     0.00   0.00   0.00
     3   1    -0.02   0.01  -0.01    -0.15   0.26   0.08     0.53  -0.76  -0.22
     4   1     0.10   0.14   0.08    -0.46  -0.72  -0.38    -0.15  -0.20  -0.11
     5   1     0.01   0.00   0.02    -0.01  -0.01   0.02    -0.01   0.01   0.01
     6   1     0.42  -0.84  -0.27     0.06  -0.15  -0.05     0.03  -0.06  -0.02

 -------------------
 - Thermochemistry -
 -------------------
 Temperature   298.150 Kelvin.  Pressure   1.00000 Atm.
 Atom     1 has atomic number  6 and mass  12.00000
 Atom     2 has atomic number  6 and mass  12.00000
 Atom     3 has atomic number  1 and mass   1.00783
 Atom     4 has atomic number  1 and mass   1.00783
 Atom     5 has atomic number  1 and mass   1.00783
 Atom     6 has atomic number  1 and mass   1.00783
 Molecular mass:    28.03130 amu.
 Principal axes and moments of inertia in atomic units:
                           1         2         3
     Eigenvalues --    14.13113  63.32631  69.00020
           X            0.94796   0.03723  -0.31620
           Y           -0.11815   0.96336  -0.24078
           Z            0.29565   0.26561   0.91763
 This molecule is an asymmetric top.
 Rotational symmetry number  1.
 Rotational temperatures (Kelvin)      6.12929     1.36774     1.25527
 Rotational constants (GHZ):         127.71390    28.49907    26.15559
    1 imaginary frequencies ignored.
 Zero-point vibrational energy     118951.2 (Joules/Mol)
                                   28.43003 (Kcal/Mol)
 Vibrational temperatures:   1414.64  1554.10  1672.33  1786.64  1883.58
          (Kelvin)           2050.82  2289.09  2906.06  4212.33  4337.67
                             4505.80
 
 Zero-point correction=                           0.045306 (Hartree/Particle)
 Thermal correction to Energy=                    0.048260
 Thermal correction to Enthalpy=                  0.049204
 Thermal correction to Gibbs Free Energy=         0.023075
 Sum of electronic and zero-point Energies=            -77.972616
 Sum of electronic and thermal Energies=               -77.969662
 Sum of electronic and thermal Enthalpies=             -77.968718
 Sum of electronic and thermal Free Energies=          -77.994847
 
                     E (Thermal)             CV                S
                      KCal/Mol        Cal/Mol-Kelvin    Cal/Mol-Kelvin
 Total                   30.284              7.371             54.993
 Electronic               0.000              0.000              0.000
 Translational            0.889              2.981             35.927
 Rotational               0.889              2.981             18.763
 Vibrational             28.506              1.410              0.302
                       Q            Log10(Q)             Ln(Q)
 Total Bot       0.243248D-10        -10.613950        -24.439524
 Total V=0       0.168027D+11         10.225378         23.544803
 Vib (Bot)       0.148244D-20        -20.829022        -47.960597
 Vib (V=0)       0.102401D+01          0.010306          0.023730
 Electronic      0.100000D+01          0.000000          0.000000
 Translational   0.583338D+07          6.765920         15.579107
 Rotational      0.281289D+04          3.449152          7.941966
 -------------------------------------------------------------------
 Center     Atomic                   Forces (Hartrees/Bohr)
 Number     Number              X              Y              Z
 -------------------------------------------------------------------
      1        6           0.000000045   -0.000000040    0.000000606
      2        6          -0.000000148   -0.000005688    0.000000373
      3        1           0.000000622   -0.000001928    0.000008867
      4        1          -0.000000429    0.000004729   -0.000007485
      5        1           0.000000676    0.000005756    0.000006460
      6        1          -0.000000766   -0.000002830   -0.000008821
 -------------------------------------------------------------------
 Cartesian Forces:  Max     0.000008867 RMS     0.000004447

 GradGradGradGradGradGradGradGradGradGradGradGradGradGradGradGradGradGrad
 Berny optimization.
 Search for a local minimum.
 Step number   1 out of a maximum of    2
 All quantities printed in internal units (Hartrees-Bohrs-Radians)
 Second derivative matrix not updated -- analytic derivatives used.
 The second derivative matrix:
                          X1        Y1        Z1        X2        Y2
           X1           0.60088
           Y1          -0.06246   0.53055
           Z1           0.09620   0.14610   0.24165
           X2          -0.29867  -0.01748  -0.08110   0.37288
           Y2           0.05708  -0.06327  -0.01928  -0.11146   0.30790
           Z2          -0.10773  -0.06664  -0.01323   0.03274   0.07490
           X3          -0.12453   0.10790   0.03393  -0.01876   0.01967
           Y3           0.11378  -0.23015  -0.06046   0.00615  -0.00123
           Z3           0.02589  -0.06196  -0.05300  -0.01565   0.02178
           X4          -0.11954  -0.09221  -0.04203  -0.02112  -0.01988
           Y4          -0.08547  -0.20446  -0.07430  -0.00466   0.01170
           Z4          -0.04734  -0.07378  -0.09960  -0.00408  -0.01755
           X5          -0.02533   0.02138  -0.01575   0.02758  -0.00553
           Y5          -0.01475  -0.03074   0.01852   0.02203  -0.02572
           Z5           0.04207   0.04554  -0.07398   0.02089   0.02172
           X6          -0.03281   0.04289   0.00875  -0.06191   0.06012
           Y6          -0.00817  -0.00194  -0.01058   0.10542  -0.22938
           Z6          -0.00909   0.01074  -0.00185   0.04721  -0.08157
                          Z2        X3        Y3        Z3        X4
           Z2           0.07814
           X3           0.01198   0.15040
           Y3           0.01200  -0.12452   0.24129
           Z3          -0.01559  -0.03460   0.06120   0.05500
           X4          -0.02393   0.01060   0.01412   0.00486   0.12335
           Y4          -0.00886  -0.01303  -0.01703  -0.01035   0.09871
           Z4           0.02239  -0.00657  -0.00707   0.00244   0.06051
           X5           0.06622  -0.01406  -0.01050   0.02548   0.00362
           Y5           0.03820   0.00759   0.00389  -0.01015  -0.00079
           Z5          -0.01685   0.00081  -0.00064   0.00072  -0.00348
           X6           0.02072  -0.00363   0.00096  -0.00597   0.00310
           Y6          -0.04961   0.00239   0.00324  -0.00052   0.00005
           Z6          -0.05487  -0.00554  -0.00502   0.01043   0.00407
                          Y4        Z4        X5        Y5        Z5
           Y4           0.20892
           Z4           0.09211   0.07827
           X5           0.00445  -0.00606   0.00736
           Y5          -0.00226   0.00237  -0.00842   0.06456
           Z5          -0.00311   0.00452  -0.06013  -0.05737   0.08673
           X6           0.00000   0.00354   0.00083  -0.00566  -0.00016
           Y6           0.00314   0.00392  -0.00137  -0.00972  -0.00614
           Z6           0.00451  -0.00802  -0.00976   0.00842  -0.00114
                          X6        Y6        Z6
           X6           0.09442
           Y6          -0.09831   0.23466
           Z6          -0.02688   0.06293   0.05545
 ITU=  0
     Eigenvalues ---   -0.09909   0.04317   0.06756   0.07878   0.11221
     Eigenvalues ---    0.11502   0.15856   0.23378   0.32919   0.52408
     Eigenvalues ---    0.76824   0.92132
 Eigenvalue     1 is  -9.91D-02 should be greater than     0.000000 Eigenvector:
                          X5        Z5        Z2        Y5        Z3
   1                    0.69250   0.43502  -0.33298   0.22799  -0.17848
                          Y1        Z1        X1        X4        X2
   1                   -0.15893   0.15889  -0.14208  -0.11685  -0.11499
 Angle between quadratic step and forces=  79.52 degrees.
 Linear search not attempted -- first point.
 TrRot=  0.000000  0.000002 -0.000001  0.000001  0.000001  0.000001
 Variable       Old X    -DE/DX   Delta X   Delta X   Delta X     New X
                                 (Linear)    (Quad)   (Total)
    X1       -0.89419   0.00000   0.00000   0.00000   0.00000  -0.89419
    Y1        0.14676   0.00000   0.00000   0.00000   0.00000   0.14675
    Z1        0.07658   0.00000   0.00000   0.00000   0.00000   0.07658
    X2        1.61797   0.00000   0.00000   0.00000   0.00000   1.61797
    Y2        0.02295  -0.00001   0.00000   0.00001   0.00001   0.02296
    Z2        0.99179   0.00000   0.00000   0.00000  -0.00001   0.99179
    X3       -2.03462   0.00000   0.00000   0.00000   0.00000  -2.03462
    Y3        1.80339   0.00000   0.00000   0.00000  -0.00001   1.80338
    Z3        0.53486   0.00001   0.00000   0.00001   0.00001   0.53487
    X4       -1.97090   0.00000   0.00000   0.00000   0.00000  -1.97090
    Y4       -1.40789   0.00000   0.00000   0.00000   0.00000  -1.40789
    Z4       -0.77648  -0.00001   0.00000  -0.00001  -0.00001  -0.77649
    X5        0.84439   0.00000   0.00000   0.00001   0.00001   0.84440
    Y5        1.24170   0.00001   0.00000  -0.00001   0.00000   1.24170
    Z5       -1.19471   0.00001   0.00000   0.00000   0.00000  -1.19471
    X6        2.43736   0.00000   0.00000  -0.00001  -0.00001   2.43735
    Y6       -1.80691   0.00000   0.00000  -0.00001   0.00000  -1.80691
    Z6        0.36796  -0.00001   0.00000   0.00000   0.00000   0.36796
         Item               Value     Threshold  Converged?
 Maximum Force            0.000009     0.000450     YES
 RMS     Force            0.000004     0.000300     YES
 Maximum Displacement     0.000014     0.001800     YES
 RMS     Displacement     0.000006     0.001200     YES
 Predicted change in Energy=-3.758494D-11
 Optimization completed.
    -- Stationary point found.
 GradGradGradGradGradGradGradGradGradGradGradGradGradGradGradGradGradGrad

 1\1\GINC-ANT01\Freq\RB3LYP\3-21G\C2H4\GNOVIKOV\14-Oct-2017\0\\# B3lyp/
 3-21g nosym freq\\\0,1\C,-0.4731865605,0.0776608529,0.0405234802\C,0.8
 561909549,0.0121431357,0.5248341731\H,-1.0766764348,0.9543115094,0.283
 0356894\H,-1.0429538385,-0.745023009,-0.4108963788\H,0.4468315106,0.65
 70818062,-0.6322145388\H,1.289794264,-0.956174382,0.1947159248\\Versio
 n=AM64L-G09RevD.01\HF=-78.0179221\RMSD=4.562e-09\RMSF=4.447e-06\ZeroPo
 int=0.0453061\Thermal=0.04826\Dipole=-0.6720118,-0.2955957,-0.6749728\
 DipoleDeriv=0.3675697,0.1087389,-0.0632915,0.0271227,0.1515071,0.15453
 5,-0.1476638,0.2012771,-0.1902506,-0.2083636,-0.1815286,0.1564239,-0.2
 951235,-0.0077791,0.0845661,0.0310257,0.0269104,-0.2322617,-0.025192,0
 .0752746,0.0231941,0.0691993,-0.0436063,-0.0467983,-0.015059,-0.023213
 6,0.0993838,-0.1420177,-0.086345,-0.1283985,-0.1273263,-0.0311287,-0.1
 424872,-0.056095,-0.1215739,0.1560274,-0.0811015,0.0570216,0.0110221,0
 .1039531,0.1347137,0.0154449,0.0365149,0.0438612,0.07178,0.0891051,0.0
 268385,0.00105,0.2221747,-0.2037068,-0.0652605,0.1512771,-0.1272611,0.
 0953212\Polar=27.1679344,-2.0058485,19.7581368,3.5991955,0.1680758,16.
 6799927\PG=C01 [X(C2H4)]\NImag=1\\0.60087807,-0.06246475,0.53054548,0.
 09619956,0.14610221,0.24165142,-0.29866817,-0.01748412,-0.08110342,0.3
 7287864,0.05707839,-0.06326501,-0.01928171,-0.11145969,0.30789950,-0.1
 0773119,-0.06663537,-0.01322538,0.03273592,0.07490335,0.07813790,-0.12
 453428,0.10789804,0.03392615,-0.01875878,0.01967102,0.01197829,0.15039
 544,0.11377880,-0.23014531,-0.06046439,0.00615037,-0.00123431,0.012003
 59,-0.12451520,0.24128779,0.02589441,-0.06196329,-0.05299817,-0.015649
 51,0.02177961,-0.01558687,-0.03460210,0.06119518,0.05499660,-0.1195405
 3,-0.09221093,-0.04202785,-0.02112380,-0.01987984,-0.02392627,0.010595
 32,0.01412408,0.00485508,0.12334708,-0.08546618,-0.20445844,-0.0742970
 7,-0.00465608,0.01170131,-0.00886149,-0.01303360,-0.01703366,-0.010349
 18,0.09870812,0.20891776,-0.04734492,-0.07378460,-0.09959773,-0.004078
 94,-0.01755166,0.02238704,-0.00656901,-0.00706689,0.00244245,0.0605141
 0,0.09211377,0.07826815,-0.02532922,0.02137526,-0.01574721,0.02757746,
 -0.00553393,0.06622138,-0.01406345,-0.01049616,0.02547575,0.00362336,0
 .00444636,-0.00605983,0.00736313,-0.01475185,-0.03073817,0.01852410,0.
 02203083,-0.02572338,0.03820290,0.00758772,0.00388759,-0.01014641,-0.0
 0078951,-0.00226213,0.00237365,-0.00841690,0.06455526,0.04207439,0.045
 54213,-0.07397556,0.02088607,0.02172317,-0.01684568,0.00080904,-0.0006
 4279,0.00071546,-0.00348063,-0.00311478,0.00451781,-0.06013027,-0.0573
 7050,0.08672658,-0.03280587,0.04288651,0.00875277,-0.06190536,0.060124
 05,0.02072187,-0.00363425,0.00095811,-0.00597361,0.00309857,0.00000138
 ,0.00353860,0.00082873,-0.00566029,-0.00015860,0.09441819,-0.00817440,
 -0.00193855,-0.01058313,0.10541868,-0.22937811,-0.04961297,0.00239203,
 0.00323789,-0.00051592,0.00004808,0.00313516,0.00391572,-0.00137463,-0
 .00971918,-0.00613723,-0.09830976,0.23466280,-0.00909224,0.01073892,-0
 .00185458,0.04720987,-0.08157276,-0.05486700,-0.00554237,-0.00502470,0
 .01043053,0.00406557,0.00450875,-0.00801772,-0.00975982,0.00841626,-0.
 00113860,-0.02688102,0.06293353,0.05544738\\-0.00000005,0.00000004,-0.
 00000061,0.00000015,0.00000569,-0.00000037,-0.00000062,0.00000193,-0.0
 0000887,0.00000043,-0.00000473,0.00000749,-0.00000068,-0.00000576,-0.0
 0000646,0.00000077,0.00000283,0.00000882\\\@


 ON A TOMBSTONE, "HERE LIES LESTER MOORE,
 FOUR SLUGS FROM A 44, NO LES, NO MORE".
 Job cpu time:       0 days  0 hours  0 minutes 14.8 seconds.
 File lengths (MBytes):  RWF=     18 Int=      0 D2E=      0 Chk=      1 Scr=      5
 Normal termination of Gaussian 09 at Sat Oct 14 06:44:59 2017.
