                                                                        
Freq      RB3LYP                                                      3-21G               
Number of atoms                            I                6
Info1-9                                    I   N=           9
          19          19           0           0           0         100
           6          18        -502
Charge                                     I                0
Multiplicity                               I                1
Number of electrons                        I               16
Number of alpha electrons                  I                8
Number of beta electrons                   I                8
Number of basis functions                  I               26
Number of independent functions            I               26
Number of point charges in /Mol/           I                0
Number of translation vectors              I                0
Atomic numbers                             I   N=           6
           6           6           1           1           1           1
Nuclear charges                            R   N=           6
  6.00000000E+00  6.00000000E+00  1.00000000E+00  1.00000000E+00  1.00000000E+00
  1.00000000E+00
Current cartesian coordinates              R   N=          18
 -1.61328909E+00 -4.16689479E-03 -9.99671283E-01  8.93806323E-01 -1.50390080E-01
 -7.39285070E-02 -2.42652809E+00  1.82293027E+00 -3.59936772E-01 -8.56283902E-01
 -1.25032980E+00  1.17713929E+00  1.97402197E+00  1.38958310E+00  8.01038214E-01
  2.02827259E+00 -1.80762675E+00 -5.44644057E-01
Force Field                                I                0
Int Atom Types                             I   N=           6
           0           0           0           0           0           0
MM charges                                 R   N=           6
  0.00000000E+00  0.00000000E+00  0.00000000E+00  0.00000000E+00  0.00000000E+00
  0.00000000E+00
Integer atomic weights                     I   N=           6
          12          12           1           1           1           1
Real atomic weights                        R   N=           6
  1.20000000E+01  1.20000000E+01  1.00782504E+00  1.00782504E+00  1.00782504E+00
  1.00782504E+00
Atom fragment info                         I   N=           6
           0           0           0           0           0           0
Atom residue num                           I   N=           6
           0           0           0           0           0           0
Nuclear spins                              I   N=           6
           0           0           1           1           1           1
Nuclear ZEff                               R   N=           6
 -3.60000000E+00 -3.60000000E+00 -1.00000000E+00 -1.00000000E+00 -1.00000000E+00
 -1.00000000E+00
Nuclear ZNuc                               R   N=           6
  6.00000000E+00  6.00000000E+00  1.00000000E+00  1.00000000E+00  1.00000000E+00
  1.00000000E+00
Nuclear QMom                               R   N=           6
  0.00000000E+00  0.00000000E+00  0.00000000E+00  0.00000000E+00  0.00000000E+00
  0.00000000E+00
Nuclear GFac                               R   N=           6
  0.00000000E+00  0.00000000E+00  2.79284600E+00  2.79284600E+00  2.79284600E+00
  2.79284600E+00
MicOpt                                     I   N=           6
          -1          -1          -1          -1          -1          -1
Number of contracted shells                I               14
Number of primitive shells                 I               24
Pure/Cartesian d shells                    I                1
Pure/Cartesian f shells                    I                0
Highest angular momentum                   I                1
Largest degree of contraction              I                3
Shell types                                I   N=          14
           0          -1          -1           0          -1          -1
           0           0           0           0           0           0
           0           0
Number of primitives per shell             I   N=          14
           3           2           1           3           2           1
           2           1           2           1           2           1
           2           1
Shell to atom map                          I   N=          14
           1           1           1           2           2           2
           3           3           4           4           5           5
           6           6
Primitive exponents                        R   N=          24
  1.72256000E+02  2.59109000E+01  5.53335000E+00  3.66498000E+00  7.70545000E-01
  1.95857000E-01  1.72256000E+02  2.59109000E+01  5.53335000E+00  3.66498000E+00
  7.70545000E-01  1.95857000E-01  5.44717800E+00  8.24547240E-01  1.83191580E-01
  5.44717800E+00  8.24547240E-01  1.83191580E-01  5.44717800E+00  8.24547240E-01
  1.83191580E-01  5.44717800E+00  8.24547240E-01  1.83191580E-01
Contraction coefficients                   R   N=          24
  6.17669074E-02  3.58794043E-01  7.00713084E-01 -3.95895162E-01  1.21583436E+00
  1.00000000E+00  6.17669074E-02  3.58794043E-01  7.00713084E-01 -3.95895162E-01
  1.21583436E+00  1.00000000E+00  1.56284979E-01  9.04690877E-01  1.00000000E+00
  1.56284979E-01  9.04690877E-01  1.00000000E+00  1.56284979E-01  9.04690877E-01
  1.00000000E+00  1.56284979E-01  9.04690877E-01  1.00000000E+00
P(S=P) Contraction coefficients            R   N=          24
  0.00000000E+00  0.00000000E+00  0.00000000E+00  2.36459947E-01  8.60618806E-01
  1.00000000E+00  0.00000000E+00  0.00000000E+00  0.00000000E+00  2.36459947E-01
  8.60618806E-01  1.00000000E+00  0.00000000E+00  0.00000000E+00  0.00000000E+00
  0.00000000E+00  0.00000000E+00  0.00000000E+00  0.00000000E+00  0.00000000E+00
  0.00000000E+00  0.00000000E+00  0.00000000E+00  0.00000000E+00
Coordinates of each shell                  R   N=          42
 -1.61328909E+00 -4.16689479E-03 -9.99671283E-01 -1.61328909E+00 -4.16689479E-03
 -9.99671283E-01 -1.61328909E+00 -4.16689479E-03 -9.99671283E-01  8.93806323E-01
 -1.50390080E-01 -7.39285070E-02  8.93806323E-01 -1.50390080E-01 -7.39285070E-02
  8.93806323E-01 -1.50390080E-01 -7.39285070E-02 -2.42652809E+00  1.82293027E+00
 -3.59936772E-01 -2.42652809E+00  1.82293027E+00 -3.59936772E-01 -8.56283902E-01
 -1.25032980E+00  1.17713929E+00 -8.56283902E-01 -1.25032980E+00  1.17713929E+00
  1.97402197E+00  1.38958310E+00  8.01038214E-01  1.97402197E+00  1.38958310E+00
  8.01038214E-01  2.02827259E+00 -1.80762675E+00 -5.44644057E-01  2.02827259E+00
 -1.80762675E+00 -5.44644057E-01
Constraint Structure                       R   N=          18
 -1.61328909E+00 -4.16689479E-03 -9.99671283E-01  8.93806323E-01 -1.50390080E-01
 -7.39285070E-02 -2.42652809E+00  1.82293027E+00 -3.59936772E-01 -8.56283902E-01
 -1.25032980E+00  1.17713929E+00  1.97402197E+00  1.38958310E+00  8.01038214E-01
  2.02827259E+00 -1.80762675E+00 -5.44644057E-01
Num ILSW                                   I              100
ILSW                                       I   N=         100
           0           1           0           0           2           0
           0           0           0           0         402          -1
           0           0           0           0           2           0
           0           0           1           0           1           0
           1           1           0           0           0           0
           0           0      100000           0          -1           0
           0           0           0           0           0           0
           0           0           0           1           0           0
           0           0           1           0           0           0
           0           0           4          41           0           0
           0           0           5           0           0           0
           0           0           0           0           0           0
           0           0           0           0           0           0
           0           0           0           0           0           0
           0           0           0           0           0           0
           0           0           0           0           0           0
           0           0           0           0
Num RLSW                                   I               41
RLSW                                       R   N=          41
  8.00000000E-01  7.20000000E-01  1.00000000E+00  8.10000000E-01  2.00000000E-01
  0.00000000E+00  0.00000000E+00  1.00000000E+00  0.00000000E+00  0.00000000E+00
  0.00000000E+00  0.00000000E+00  1.00000000E+00  0.00000000E+00  0.00000000E+00
  0.00000000E+00  0.00000000E+00  1.00000000E+00  0.00000000E+00  0.00000000E+00
  0.00000000E+00  0.00000000E+00  1.00000000E+00  0.00000000E+00  0.00000000E+00
  0.00000000E+00  0.00000000E+00  1.00000000E+00  0.00000000E+00  0.00000000E+00
  0.00000000E+00  0.00000000E+00  1.00000000E+00  0.00000000E+00  0.00000000E+00
  0.00000000E+00  0.00000000E+00  0.00000000E+00  1.00000000E+00  1.00000000E+00
  0.00000000E+00
MxBond                                     I                4
NBond                                      I   N=           6
           2           4           1           1           1           1
IBond                                      I   N=          24
           2           3           0           0           1           4
           5           6           1           0           0           0
           2           0           0           0           2           0
           0           0           2           0           0           0
RBond                                      R   N=          24
  1.50000000E+00  1.00000000E+00  0.00000000E+00  0.00000000E+00  1.50000000E+00
  1.00000000E+00  1.00000000E+00  1.00000000E+00  1.00000000E+00  0.00000000E+00
  0.00000000E+00  0.00000000E+00  1.00000000E+00  0.00000000E+00  0.00000000E+00
  0.00000000E+00  1.00000000E+00  0.00000000E+00  0.00000000E+00  0.00000000E+00
  1.00000000E+00  0.00000000E+00  0.00000000E+00  0.00000000E+00
Virial Ratio                               R      2.008348197556106E+00
SCF Energy                                 R     -7.801792287435046E+01
Total Energy                               R     -7.801792287435046E+01
RMS Force                                  R      4.430928582854033E-06
RMS Density                                R      2.091698552474356E-09
External E-field                           R   N=          35
  0.00000000E+00  0.00000000E+00  0.00000000E+00  0.00000000E+00  0.00000000E+00
  0.00000000E+00  0.00000000E+00  0.00000000E+00  0.00000000E+00  0.00000000E+00
  0.00000000E+00  0.00000000E+00  0.00000000E+00  0.00000000E+00  0.00000000E+00
  0.00000000E+00  0.00000000E+00  0.00000000E+00  0.00000000E+00  0.00000000E+00
  0.00000000E+00  0.00000000E+00  0.00000000E+00  0.00000000E+00  0.00000000E+00
  0.00000000E+00  0.00000000E+00  0.00000000E+00  0.00000000E+00  0.00000000E+00
  0.00000000E+00  0.00000000E+00  0.00000000E+00  0.00000000E+00  0.00000000E+00
IOpCl                                      I                0
IROHF                                      I                0
Alpha Orbital Energies                     R   N=          26
 -1.01721712E+01 -1.01336340E+01 -8.22485082E-01 -5.82348999E-01 -4.88228093E-01
 -4.13317137E-01 -3.72232563E-01 -1.99605577E-01 -2.53265481E-02  7.67350476E-02
  1.25581942E-01  1.52267128E-01  2.11106276E-01  3.19185892E-01  6.84834202E-01
  7.17680524E-01  7.20435014E-01  7.73083736E-01  7.78945094E-01  8.49351774E-01
  9.32881248E-01  9.94291602E-01  1.04028414E+00  1.09806144E+00  1.62447874E+00
  1.63438495E+00
Alpha MO coefficients                      R   N=         676
 -8.16469014E-03 -1.60585632E-03 -1.54831281E-03 -2.11592198E-04  3.26533561E-04
  1.68213941E-02  1.22678212E-02  3.08617509E-05 -2.15201091E-04  9.85808910E-01
  1.08985209E-01 -1.10023004E-03 -1.12841957E-03  7.01004017E-04 -8.00684884E-02
  8.63921582E-03  5.02334429E-03  9.71800838E-04 -5.54659671E-04  2.47005147E-03
  1.25112319E-03  1.20664883E-02 -1.85522413E-03  1.22726395E-02 -8.91875233E-04
  1.56323470E-02  9.85822411E-01  1.07040278E-01  2.73764420E-03  2.64527305E-03
  3.97969572E-03 -7.40736978E-02 -1.27092695E-02 -9.25914936E-03 -1.46121207E-02
  8.70415484E-03  2.39320143E-04  1.10824967E-03 -9.96868878E-04  1.05080414E-03
  1.83794033E-02 -1.13218755E-02  9.01416720E-03 -6.05460356E-03 -2.37662681E-04
  1.80487666E-02  1.50430790E-03  1.11043278E-02 -1.34894774E-03 -1.07045414E-03
 -3.83684420E-05  4.42060618E-03 -1.36712985E-01  1.39202818E-01  1.15269396E-01
  1.06426564E-02  8.68818155E-02  3.00564425E-01  2.62327400E-02  2.93423343E-02
  6.91823474E-02 -1.74061926E-01  1.76188137E-01 -1.14061570E-01 -1.53911940E-02
 -1.26649890E-03  4.39840600E-01 -5.05115737E-02 -3.91090776E-02  2.12440418E-02
  6.10040916E-02 -2.06591826E-02  1.35391384E-01 -5.69393686E-03  6.88567061E-02
  3.71007338E-03  7.15237321E-02 -1.32899104E-02  1.30587447E-01 -1.29607697E-01
  1.33476144E-02 -8.69359339E-02 -6.59817336E-02 -4.47091747E-01 -3.65234354E-02
 -5.98620669E-02 -7.73671206E-02 -1.17210323E-01  1.15135093E-01  2.29812720E-01
 -4.79273667E-02  4.68505467E-02  4.52417772E-01  9.18328260E-02 -3.20322284E-02
  1.88744839E-02 -1.39419038E-01 -6.05419985E-02 -2.73611128E-02 -9.72853916E-03
  1.40719712E-01  7.50318492E-02  1.64674484E-01  8.12296489E-02 -1.82382519E-02
  1.27814667E-02 -9.06912861E-02  1.98154995E-01 -2.54582707E-02  9.98050539E-02
 -5.76818452E-03  9.52454581E-02 -7.69790734E-03 -1.82833530E-02  1.86657772E-02
  1.54488569E-01  2.97127125E-01  6.16901676E-02  2.24454314E-02  1.14910087E-01
  2.42171123E-01  5.79045641E-02  1.40014681E-01  1.30618140E-01 -1.43679690E-01
 -1.16385507E-01  2.10092579E-01  1.45292756E-01 -7.82369494E-02 -3.32924770E-02
 -6.70978707E-02  6.38096760E-02 -7.23434099E-02  1.13301098E-01 -1.24554985E-01
  2.69531550E-01 -1.18430540E-02  7.51630075E-02 -7.28413942E-02  2.05246175E-03
  3.13287362E-04  1.68698726E-01 -1.69333281E-01 -2.40245975E-01 -5.24918088E-02
  1.46361445E-01 -1.31447891E-01 -1.99157829E-01  1.31886231E-01  1.29472531E-01
 -1.71139187E-01 -1.69976035E-01 -1.02399308E-01 -8.29721549E-02  2.04391961E-01
  1.87335829E-01 -8.89849678E-03  1.99629633E-02  3.14315437E-01 -5.46080646E-02
 -1.02123019E-01 -1.10798013E-02  1.63324570E-01 -2.75344779E-02 -8.82418052E-02
 -4.16283389E-02  4.85616087E-02 -1.73147891E-01  1.68562414E-01 -2.52512345E-01
  1.88934972E-01 -1.35827821E-01  1.32318447E-01 -2.21768074E-01 -1.51217130E-01
 -1.81937043E-01 -1.31184543E-01 -2.27829841E-01  3.53033360E-03  4.96396603E-05
 -8.52643039E-02 -9.42764007E-02 -1.11117214E-01  9.13336054E-02 -1.78845767E-01
 -3.06331165E-01 -1.91727302E-01  5.71570478E-01 -1.76131063E-01 -2.96295844E-01
 -1.90942744E-01  3.78709879E-02 -3.57506297E-02  1.23129829E-01  7.54802648E-02
  7.47423123E-03 -2.33386491E-01  1.42194699E-01 -2.41901662E-03 -9.33931644E-02
 -1.14953457E-01 -1.67917382E-01  1.71599161E-02  1.54356401E-01  1.19812288E-01
  2.57001659E-01 -8.04509752E-02 -1.47278405E-01  9.55292046E-03 -2.30599049E-02
 -7.69039176E-02 -1.38647608E-01  3.74933594E-01  6.58633103E-02 -7.66272666E-02
 -2.31192775E-01  6.21033388E-01  2.34765604E-02  6.84065638E-03  9.71299408E-02
  1.19128835E-01 -2.85938124E-01 -3.47450729E-01  2.29218131E-01  2.38407519E-01
 -4.70473280E-01  3.81472490E-03 -3.57758022E-03  1.46935520E-02  7.53426294E-02
  2.41043523E-02  6.97994051E-02  3.80517849E-02  1.19301777E-01  8.07885894E-02
 -6.03405892E-02  3.03805013E-02  1.18341206E-01 -1.82915137E-01 -7.12629704E-01
  6.95210487E-02  1.96178919E-01 -4.49069503E-01  4.90076516E-02 -4.43828847E-02
  1.05464272E-01  8.65705160E-02 -1.90685287E-01 -4.78372892E-01  2.30190106E-01
  3.16985441E-01 -4.76795868E-01  3.55106125E-03  2.66973442E-01  2.16738078E-01
  1.53302491E+00 -3.43422894E-02  8.49721029E-03 -4.93780969E-02  2.56019740E-02
  3.76083702E-02 -7.92663934E-03  1.32726452E-01 -1.19707189E-01 -1.71226039E-02
 -6.42939752E-01  2.49855566E-01 -3.56875952E-01 -1.28039691E-01  1.11275724E-01
 -6.95439678E-02 -1.80945579E-01 -1.23718951E-01 -3.79888523E-02 -1.34224870E+00
 -6.73104992E-01 -3.06566311E-01 -1.37837124E-01  5.89053846E-02  8.41865349E-01
 -4.16219813E-02 -1.31793210E-01  9.11093659E-02  1.42417110E+00  2.94323772E-02
  6.30695942E-01 -6.98560466E-02  3.09051413E-02 -1.41755015E-02  1.42253366E-01
  2.92633694E-02  8.68731062E-01  5.45029688E-02  3.16286603E-01  8.32493923E-02
  1.01375662E-01 -5.29071293E-02 -9.84480701E-02  2.23460441E-01  8.85556979E-02
 -1.34432181E+00 -1.69351435E-01  7.51389338E-01  3.14043197E-01 -9.53454221E-02
 -9.43202818E-01 -1.26617515E-02  2.03972493E-01 -1.71540962E-02 -1.45323795E-01
  1.01775711E-01  1.60838673E+00 -8.49335410E-02  3.61041903E-02  2.15612621E-02
  2.44829656E-01  8.47522727E-02  1.32731535E+00  1.70283663E-01  8.65821607E-01
  4.27889999E-01  5.51445761E-02 -1.94920103E-02  3.45174963E-02 -2.62749856E-01
 -1.13804460E-01 -7.95000679E-01  4.68824575E-01 -1.06166089E+00 -2.92587253E-01
  2.34574721E-03 -1.27352961E+00  6.27118455E-02  7.25833546E-02  4.14901110E-02
  1.19699982E+00 -1.77845365E-02 -9.28387929E-01 -9.33791015E-02  2.07904038E-02
  3.28469596E-01 -1.23996739E-01  3.81116705E-02  1.80829573E+00  1.70412298E+00
 -3.90990022E-01  4.30034081E-01  8.87076888E-02 -2.51504640E-02  2.47270580E-01
  4.23789597E-02  1.11732344E-01 -1.58108648E+00  1.85308925E+00  1.47783323E-01
  7.70487634E-01  5.94208616E-02  4.87658095E-01 -1.01797014E-02  9.64253740E-02
 -1.50120299E-02 -7.47428215E-01 -7.09479441E-02 -1.38242892E-01  1.47819861E-02
  4.47940324E-02  4.47242987E-01 -1.98026007E-01  5.94417648E-02  3.51251071E-01
 -5.28169622E-01  3.69401129E-01 -1.23348444E-01 -5.13556781E-03  5.19500787E-02
 -5.35222054E-01  7.32608010E-02 -5.03118802E-01  2.45425828E-01  1.02508756E+00
 -5.73262511E-02  5.80978448E-01 -2.69307615E-01  1.92224294E-02 -2.97650563E-01
  5.06149091E-01 -2.89317808E-01 -1.90402487E-01 -5.79308802E-02 -2.63034802E-01
  3.84334412E-02 -1.09809897E-01 -4.75927800E-02 -2.28560930E-02  2.29599966E-01
  3.32730989E-01  3.87741621E-02  7.23386447E-02 -6.24616209E-02 -9.41974967E-03
 -1.13515248E-02 -6.43091531E-01 -1.10842695E-01  6.65241152E-01  1.36145019E-02
  1.15294420E+00 -1.39066741E-02 -7.34687498E-01  3.65444175E-02  3.62491752E-02
  2.35815356E-01  2.16820957E-01 -1.38608531E-01 -6.16313598E-02 -4.17526207E-01
 -1.00819583E-01 -4.23047900E-02 -3.14230491E-02 -2.60053067E-01 -4.98468834E-01
 -1.60596931E-01  3.92328415E-01  3.63536554E-01  4.64740981E-01  2.55001074E-01
  5.13454317E-03 -7.70644321E-02  8.45792562E-02 -5.48866178E-01  1.52187728E-01
 -3.55214710E-01  1.30104487E-01  9.31856946E-01  4.42031230E-02 -4.01707995E-01
 -2.87338228E-02 -1.27953363E-02  1.75074901E-01 -4.86837417E-01  4.10415199E-03
  2.97611129E-01  1.40537519E-01  1.00340934E-02 -1.66253376E-02 -7.25249778E-01
 -3.62800826E-01  3.67044987E-01  3.31322312E-01  9.02736628E-01  3.33450242E-01
 -4.16490283E-01 -3.38423960E-02 -4.64870381E-02 -1.01599301E-01  2.92343617E-01
 -4.35366640E-01 -1.68335495E-01  2.38016985E-01 -4.87521462E-01  6.22349155E-01
  2.01969784E-01 -4.64985457E-02  1.17478091E-01 -2.20134228E-01 -1.79880852E-01
  1.04450501E-01 -2.97285510E-01  2.67802302E-02 -4.65569788E-03  2.33092260E-02
 -2.18295598E-01 -1.50965364E-02 -9.40349555E-01  6.91041387E-01  3.88986037E-01
 -6.84455326E-02  1.11158281E+00 -2.42118894E-02  5.97427984E-02 -3.65914332E-01
  1.73319603E-01 -1.55082414E-01 -2.30802658E-01  6.56685256E-01 -2.80799699E-01
  1.30828184E-01  2.04382330E-01 -1.77750998E-01  3.38662674E-01 -7.26060548E-01
 -4.24895947E-02 -2.76308226E-02 -8.95536183E-02 -8.99433428E-02 -9.59598274E-03
  8.55318512E-03  3.56905020E-01 -5.47024901E-01  1.10358720E-01  1.56090766E-01
 -6.25867713E-01  1.01695974E+00 -3.65810901E-02  6.34030690E-02 -9.55481394E-02
  7.41838388E-02  3.15398994E-01  5.45208685E-02  3.84802554E-01 -2.38660268E-01
 -7.59266883E-01 -2.72468488E-01 -1.49448418E-01 -3.64813433E-01  8.30248600E-01
 -7.26273588E-01  3.51375175E-01  1.61116815E-01  2.69923175E-01 -3.30194817E-01
 -1.40576239E-02  1.90234474E-01 -6.59444345E-02 -5.17727470E-01 -1.40086848E-01
 -3.48704599E-01 -1.42972873E-01  1.03144377E+00  1.60211599E-01 -2.04708901E-03
  1.40142066E-01 -1.33550240E-01  3.67377885E-01  3.80045694E-01 -2.67037690E-01
 -1.09114491E-01 -9.97177796E-01 -8.57913051E-01  2.82528816E-01 -6.82281757E-01
 -8.05759184E-01  1.24794481E+00  3.05656045E-01  4.76303250E-01  2.90853775E-01
 -7.73259049E-01 -2.04541861E-02 -9.41543484E-03  1.21552883E-01  1.17345383E-01
 -5.20113828E-02 -2.17569689E-01 -3.36139511E-01  1.81920112E-01  2.20433104E-01
 -3.97432687E-02  2.22787438E-02  3.86979802E-01  7.11458033E-01  3.16092027E-01
  1.10687250E-01 -5.99587782E-01 -1.34153976E+00 -5.52950368E-01 -2.64870336E-01
  7.75786260E-02  1.42402764E-03 -4.25229377E-01 -9.31704222E-01  1.67060236E+00
 -4.76021533E-02 -5.61145509E-01  1.63279457E-02 -3.08177449E-02  4.00086777E-01
 -4.34627721E-01 -1.28363278E-01 -3.55144855E-01 -1.03132446E+00  6.95802531E-01
  4.70333456E-02 -4.42134612E-02  8.98407101E-02  4.76051832E-01 -3.02607072E-01
 -2.24981411E-02  2.95159269E-01 -1.10608475E+00  2.55121963E-01 -2.08890929E-01
  5.54045036E-01 -1.14272216E+00 -5.30401956E-02 -6.95097495E-02 -1.26776994E-01
  2.70609032E-01 -8.70514026E-01  1.22244835E+00  6.26109212E-02 -3.11357000E-01
  1.83829781E-01 -4.93710215E-02  1.08910239E-01  3.31261942E-01 -1.03036516E-01
 -4.71046884E-01 -3.78261528E-01  1.28146065E-02 -9.01866990E-02 -1.32708615E-01
 -2.15242334E-02 -1.25368303E-02  2.02437638E-01  1.40569263E-01  8.11424346E-01
  2.86918871E-01  9.78811883E-01 -7.10496704E-01  1.54836216E-01  7.79577314E-02
 -4.96397942E-01 -5.91326015E-03  7.03742147E-01 -3.01810363E-01  4.30507162E-03
  6.06663540E-01  2.56795434E-02  4.31362967E-02 -6.11906123E-02 -2.13989106E+00
 -1.02690986E+00 -1.54749568E-01 -2.10842497E-01 -1.44283064E-02 -1.88940743E+00
  1.27550564E-02  3.92054691E-02  9.85539363E-04  4.16686372E+00 -7.80799939E-01
 -1.45296034E-01 -2.53463588E-01  1.47272521E-01  7.46589868E-02 -1.75391293E-01
 -3.78868267E-01 -6.39449608E-02 -5.51045603E-01 -1.42833729E-01 -6.64834778E-01
 -8.09004010E-03 -1.80196558E+00 -7.19750133E-02 -8.84203942E-02 -1.98173894E-01
  3.15501643E+00  5.01213107E-01  6.71477163E-01  9.12347425E-01 -1.83911864E-03
 -5.68634940E-01  7.72984570E-02  1.32288268E-01 -2.58982262E-02  1.69684445E-02
  4.44343228E-01 -8.94877809E-01  2.16968780E-01 -2.55238263E-01 -8.84076248E-01
 -3.01591117E-01 -6.66206499E-01  1.99154311E-01 -3.36846375E-02 -1.04387714E-01
 -5.23063062E-01
Total SCF Density                          R   N=         351
  2.04983397E+00  1.09477728E-01  1.21222335E-01  2.45594562E-02 -2.44788539E-03
  3.15427130E-01  2.62201966E-02 -1.25470125E-02  2.30566204E-02  3.13203058E-01
  2.89219648E-02 -1.35032673E-02  4.53097117E-02  1.03646367E-01  1.50537041E-01
 -5.11908941E-01  3.24573695E-01 -2.11612709E-01 -1.64604151E-01 -1.78484704E-01
  1.41084751E+00 -3.93481770E-03 -1.33007686E-02  1.73396326E-01  9.19378782E-02
  4.67086985E-02 -1.61773902E-01  1.20409478E-01  1.08627085E-02 -2.14919298E-02
  6.56382521E-02  2.50299231E-01  1.08590949E-01 -2.06029248E-01  9.86488918E-02
  2.15601444E-01 -1.38687098E-02 -1.17068426E-02  3.85670786E-02  1.21911396E-01
  1.31892947E-01 -1.44196341E-01  4.98991719E-02  1.19187362E-01  1.21192606E-01
  1.07606137E-02 -1.43295507E-02 -8.29576792E-02 -9.13293878E-03 -1.96648176E-02
  7.37209618E-02 -3.38025438E-03 -1.96060784E-02 -1.37594240E-02  2.03887281E+00
 -1.30539570E-02  1.48337196E-02  8.32396306E-02  7.75438993E-03  1.82563314E-02
 -3.14583716E-02  3.17349205E-02  1.86714334E-02  1.12582783E-02  1.19123849E-01
  1.20322058E-01  4.08557200E-02 -5.00284946E-02 -2.25469862E-01  5.46925105E-04
 -1.11879021E-01 -7.89326292E-03 -1.28537198E-01 -4.28705484E-02 -9.47926135E-02
  2.46993861E-03 -7.26047759E-03  3.26586983E-01 -1.81446889E-02  1.44317472E-02
  4.47418342E-02  2.27303229E-02 -3.26759770E-02  8.42910498E-02  3.17460974E-02
 -1.80134866E-02 -3.31628655E-02 -5.52594253E-03  5.25433293E-03 -2.36291134E-02
  3.07210069E-01  4.74655200E-02 -5.00738244E-02 -1.36877329E-01 -1.51602821E-02
  9.90214246E-02 -1.45840491E-01 -8.36352610E-02 -2.05902606E-02  6.83042899E-02
  9.20602226E-03 -1.24114695E-02  4.91104405E-02  2.95675177E-02  2.55080654E-01
  9.01709306E-02 -3.18415736E-02  3.19600682E-01  5.01834973E-02  7.96569751E-02
 -4.40356660E-01  1.32510092E-01  9.55844860E-02  5.34358029E-02 -4.51163057E-01
  2.77566385E-01 -2.58547144E-02  2.81636390E-03 -2.97100841E-02  9.96630449E-01
 -3.76840172E-02  1.84852000E-03 -1.87548783E-01 -1.06827609E-02 -9.00739627E-02
  1.56882336E-01 -1.08108686E-01 -4.66409050E-02 -7.42937317E-02  3.13705102E-02
 -1.37527003E-02  2.20627444E-01 -1.28517320E-02  2.32952446E-02 -9.10451490E-02
  1.68964076E-01  2.70070411E-02 -6.41494535E-03  4.93004114E-02  5.80018047E-02
 -8.17709500E-03 -2.42496357E-02  4.45756499E-02  2.18915225E-02 -7.72740370E-03
  1.05902557E-02  1.92449531E-03 -2.17340844E-02  2.36915885E-01  2.33021597E-02
  1.19389492E-02 -2.15046091E-02  1.92202994E-01  3.64834299E-02 -5.01277371E-02
 -8.23264051E-02  5.63956809E-02  1.28924333E-01 -2.00824737E-01 -3.55786106E-02
  4.77473891E-02  1.03121724E-01 -1.55452349E-03 -7.83166760E-04  8.30759888E-03
  1.05426525E-02  2.15143673E-01  1.86897185E-02 -9.83155089E-03  1.91969604E-02
  2.03530598E-01 -4.81203750E-02  4.64490561E-02 -8.80778981E-02  1.97856445E-01
  6.39779518E-02  1.32340324E-01 -2.63163690E-04  1.43221484E-01  7.92381038E-02
  9.65254840E-03 -1.18864415E-02  3.38205813E-02 -1.83057725E-02  1.53352762E-02
 -8.34508176E-02  4.73982435E-02 -2.16847175E-03  4.95554466E-02  1.92477076E-01
  4.37979300E-02 -4.27707945E-03 -1.03021192E-01  2.14032403E-01  6.71898788E-02
 -5.29289719E-02 -1.91186370E-03  1.59572067E-01  8.13421195E-02  2.47527238E-02
 -2.13804903E-02  8.26152394E-02 -4.65144059E-02  3.76986659E-02 -7.07843190E-02
  6.01901154E-02 -1.22640444E-02  7.22392404E-02  1.78707071E-01  1.99091128E-01
 -1.44917761E-02  1.74875140E-02 -7.29511713E-03 -8.42613733E-02  9.73115808E-02
  7.26121564E-03 -3.40904660E-02 -4.48475716E-02  6.66654864E-02 -2.14529413E-02
  2.22426525E-02 -9.59424059E-02 -7.06090435E-02  1.28109904E-01  4.81353178E-02
 -6.13151352E-02 -6.81951635E-02  1.11211730E-01 -2.55007457E-02 -4.20989111E-02
  1.73039214E-01  1.75195484E-02 -2.29282112E-03 -1.54278200E-01 -1.52703377E-01
  3.60040185E-02  7.06773930E-02 -1.22999891E-01 -1.26020465E-01  8.20398514E-03
  6.24642870E-02 -3.92267471E-02  2.04238209E-02 -6.40443261E-02  1.83822622E-01
 -1.60855080E-01  2.80304393E-02 -7.13333545E-02  1.25724538E-01 -4.20110940E-02
 -4.14817588E-02  1.55750730E-01  2.37131490E-01 -5.31524334E-03 -3.26026778E-03
 -4.42988209E-02 -3.67400796E-02 -3.84691475E-02  3.93209540E-02 -4.77281806E-02
 -5.93485767E-02 -4.69009502E-02 -5.99613826E-02  5.58170638E-02  1.07618576E-01
  1.63203371E-01  8.81371806E-02  1.53738006E-01  7.03109476E-02  1.14587724E-01
  4.94231002E-02 -2.76256269E-02 -3.30955299E-02 -1.12013046E-02  1.76894943E-02
  1.87081005E-01 -3.50097172E-02  2.13879300E-02 -1.03430266E-01 -1.31659173E-01
 -9.45445143E-02  2.13772160E-01 -9.51844638E-02 -1.45840522E-01 -9.93739021E-02
  1.91059491E-02  8.26039476E-03  1.13780312E-01  1.45922647E-01  6.86465572E-02
 -3.55591255E-02  9.58206809E-02  8.59611344E-02  4.87574678E-03 -6.07831854E-02
 -7.90741075E-02 -7.61822941E-03  7.24739487E-02  1.61211904E-01  1.99679050E-01
  1.82130142E-02 -1.67945082E-02 -1.93175754E-02  4.68014213E-02 -7.97200751E-03
 -9.97926506E-02 -1.17476960E-02  5.26744883E-02  1.61602613E-03 -6.05561331E-02
  5.76070319E-02  1.13876978E-01 -1.74587409E-01 -5.07559540E-02  1.92426413E-01
  6.51378535E-02 -1.29955988E-01 -2.83741991E-02  3.90973822E-02  6.76311849E-02
 -1.75134805E-02 -4.12978799E-02 -3.84141674E-02 -7.27921707E-02  1.87747163E-01
  4.37924416E-02 -3.14701865E-02 -2.85707668E-02  1.15395345E-01  1.77748242E-02
 -1.52682677E-01  1.06724676E-02  1.03701235E-01  3.15589047E-02  1.51629753E-02
  1.76799065E-02  8.96411564E-02 -1.44665963E-01 -4.10344931E-02  7.14274099E-02
  4.73441899E-02 -9.35389000E-02 -6.67125705E-03  7.81730598E-02  1.14528738E-01
 -4.28647844E-02 -5.93981707E-02 -6.73512055E-02 -1.04007330E-01  1.46387074E-01
  1.47641720E-01
Mulliken Charges                           R   N=           6
 -3.07821921E-01 -5.15151339E-01  1.58454519E-01  2.30600764E-01  1.94736438E-01
  2.39181540E-01
ONIOM Charges                              I   N=          16
           0           0           0           0           0           0
           0           0           0           0           0           0
           0           0           0           0
ONIOM Multiplicities                       I   N=          16
           1           0           0           0           0           0
           0           0           0           0           0           0
           0           0           0           0
Atom Layers                                I   N=           6
           1           1           1           1           1           1
Atom Modifiers                             I   N=           6
           0           0           0           0           0           0
Force Field                                I                0
Int Atom Modified Types                    I   N=           6
           0           0           0           0           0           0
Link Atoms                                 I   N=           6
           0           0           0           0           0           0
Atom Modified MM Charges                   R   N=           6
  0.00000000E+00  0.00000000E+00  0.00000000E+00  0.00000000E+00  0.00000000E+00
  0.00000000E+00
Link Distances                             R   N=          24