                                                                        
Freq      RB3LYP                                                      3-21G               
Number of atoms                            I                6
Info1-9                                    I   N=           9
          19          19           0           0           0         100
           6          18        -502
Charge                                     I                0
Multiplicity                               I                1
Number of electrons                        I               16
Number of alpha electrons                  I                8
Number of beta electrons                   I                8
Number of basis functions                  I               26
Number of independent functions            I               26
Number of point charges in /Mol/           I                0
Number of translation vectors              I                0
Atomic numbers                             I   N=           6
           6           6           1           1           1           1
Nuclear charges                            R   N=           6
  6.00000000E+00  6.00000000E+00  1.00000000E+00  1.00000000E+00  1.00000000E+00
  1.00000000E+00
Current cartesian coordinates              R   N=          18
 -6.90353567E-01  1.13184404E-01 -3.07584739E-01  1.17905736E+00 -1.62581722E+00
  9.40952021E-01 -1.03203893E+00  1.77902174E+00  9.11193261E-01 -2.49038884E+00
 -7.86759410E-01 -7.62606437E-01  1.45095506E-01  9.20803002E-01 -2.04737285E+00
  2.88862828E+00 -4.00432687E-01  1.26541562E+00
Force Field                                I                0
Int Atom Types                             I   N=           6
           0           0           0           0           0           0
MM charges                                 R   N=           6
  0.00000000E+00  0.00000000E+00  0.00000000E+00  0.00000000E+00  0.00000000E+00
  0.00000000E+00
Integer atomic weights                     I   N=           6
          12          12           1           1           1           1
Real atomic weights                        R   N=           6
  1.20000000E+01  1.20000000E+01  1.00782504E+00  1.00782504E+00  1.00782504E+00
  1.00782504E+00
Atom fragment info                         I   N=           6
           0           0           0           0           0           0
Atom residue num                           I   N=           6
           0           0           0           0           0           0
Nuclear spins                              I   N=           6
           0           0           1           1           1           1
Nuclear ZEff                               R   N=           6
 -3.60000000E+00 -3.60000000E+00 -1.00000000E+00 -1.00000000E+00 -1.00000000E+00
 -1.00000000E+00
Nuclear ZNuc                               R   N=           6
  6.00000000E+00  6.00000000E+00  1.00000000E+00  1.00000000E+00  1.00000000E+00
  1.00000000E+00
Nuclear QMom                               R   N=           6
  0.00000000E+00  0.00000000E+00  0.00000000E+00  0.00000000E+00  0.00000000E+00
  0.00000000E+00
Nuclear GFac                               R   N=           6
  0.00000000E+00  0.00000000E+00  2.79284600E+00  2.79284600E+00  2.79284600E+00
  2.79284600E+00
MicOpt                                     I   N=           6
          -1          -1          -1          -1          -1          -1
Number of contracted shells                I               14
Number of primitive shells                 I               24
Pure/Cartesian d shells                    I                1
Pure/Cartesian f shells                    I                0
Highest angular momentum                   I                1
Largest degree of contraction              I                3
Shell types                                I   N=          14
           0          -1          -1           0          -1          -1
           0           0           0           0           0           0
           0           0
Number of primitives per shell             I   N=          14
           3           2           1           3           2           1
           2           1           2           1           2           1
           2           1
Shell to atom map                          I   N=          14
           1           1           1           2           2           2
           3           3           4           4           5           5
           6           6
Primitive exponents                        R   N=          24
  1.72256000E+02  2.59109000E+01  5.53335000E+00  3.66498000E+00  7.70545000E-01
  1.95857000E-01  1.72256000E+02  2.59109000E+01  5.53335000E+00  3.66498000E+00
  7.70545000E-01  1.95857000E-01  5.44717800E+00  8.24547240E-01  1.83191580E-01
  5.44717800E+00  8.24547240E-01  1.83191580E-01  5.44717800E+00  8.24547240E-01
  1.83191580E-01  5.44717800E+00  8.24547240E-01  1.83191580E-01
Contraction coefficients                   R   N=          24
  6.17669074E-02  3.58794043E-01  7.00713084E-01 -3.95895162E-01  1.21583436E+00
  1.00000000E+00  6.17669074E-02  3.58794043E-01  7.00713084E-01 -3.95895162E-01
  1.21583436E+00  1.00000000E+00  1.56284979E-01  9.04690877E-01  1.00000000E+00
  1.56284979E-01  9.04690877E-01  1.00000000E+00  1.56284979E-01  9.04690877E-01
  1.00000000E+00  1.56284979E-01  9.04690877E-01  1.00000000E+00
P(S=P) Contraction coefficients            R   N=          24
  0.00000000E+00  0.00000000E+00  0.00000000E+00  2.36459947E-01  8.60618806E-01
  1.00000000E+00  0.00000000E+00  0.00000000E+00  0.00000000E+00  2.36459947E-01
  8.60618806E-01  1.00000000E+00  0.00000000E+00  0.00000000E+00  0.00000000E+00
  0.00000000E+00  0.00000000E+00  0.00000000E+00  0.00000000E+00  0.00000000E+00
  0.00000000E+00  0.00000000E+00  0.00000000E+00  0.00000000E+00
Coordinates of each shell                  R   N=          42
 -6.90353567E-01  1.13184404E-01 -3.07584739E-01 -6.90353567E-01  1.13184404E-01
 -3.07584739E-01 -6.90353567E-01  1.13184404E-01 -3.07584739E-01  1.17905736E+00
 -1.62581722E+00  9.40952021E-01  1.17905736E+00 -1.62581722E+00  9.40952021E-01
  1.17905736E+00 -1.62581722E+00  9.40952021E-01 -1.03203893E+00  1.77902174E+00
  9.11193261E-01 -1.03203893E+00  1.77902174E+00  9.11193261E-01 -2.49038884E+00
 -7.86759410E-01 -7.62606437E-01 -2.49038884E+00 -7.86759410E-01 -7.62606437E-01
  1.45095506E-01  9.20803002E-01 -2.04737285E+00  1.45095506E-01  9.20803002E-01
 -2.04737285E+00  2.88862828E+00 -4.00432687E-01  1.26541562E+00  2.88862828E+00
 -4.00432687E-01  1.26541562E+00
Constraint Structure                       R   N=          18
 -6.90353567E-01  1.13184404E-01 -3.07584739E-01  1.17905736E+00 -1.62581722E+00
  9.40952021E-01 -1.03203893E+00  1.77902174E+00  9.11193261E-01 -2.49038884E+00
 -7.86759410E-01 -7.62606437E-01  1.45095506E-01  9.20803002E-01 -2.04737285E+00
  2.88862828E+00 -4.00432687E-01  1.26541562E+00
Num ILSW                                   I              100
ILSW                                       I   N=         100
           0           1           0           0           2           0
           0           0           0           0         402          -1
           0           0           0           0           2           0
           0           0           1           0           1           0
           1           1           0           0           0           0
           0           0      100000           0          -1           0
           0           0           0           0           0           0
           0           0           0           1           0           0
           0           0           1           0           0           0
           0           0           4          41           0           0
           0           0           5           0           0           0
           0           0           0           0           0           0
           0           0           0           0           0           0
           0           0           0           0           0           0
           0           0           0           0           0           0
           0           0           0           0           0           0
           0           0           0           0
Num RLSW                                   I               41
RLSW                                       R   N=          41
  8.00000000E-01  7.20000000E-01  1.00000000E+00  8.10000000E-01  2.00000000E-01
  0.00000000E+00  0.00000000E+00  1.00000000E+00  0.00000000E+00  0.00000000E+00
  0.00000000E+00  0.00000000E+00  1.00000000E+00  0.00000000E+00  0.00000000E+00
  0.00000000E+00  0.00000000E+00  1.00000000E+00  0.00000000E+00  0.00000000E+00
  0.00000000E+00  0.00000000E+00  1.00000000E+00  0.00000000E+00  0.00000000E+00
  0.00000000E+00  0.00000000E+00  1.00000000E+00  0.00000000E+00  0.00000000E+00
  0.00000000E+00  0.00000000E+00  1.00000000E+00  0.00000000E+00  0.00000000E+00
  0.00000000E+00  0.00000000E+00  0.00000000E+00  1.00000000E+00  1.00000000E+00
  0.00000000E+00
MxBond                                     I                4
NBond                                      I   N=           6
           4           2           1           1           1           1
IBond                                      I   N=          24
           2           3           4           5           1           6
           0           0           1           0           0           0
           1           0           0           0           1           0
           0           0           2           0           0           0
RBond                                      R   N=          24
  1.00000000E+00  1.00000000E+00  1.00000000E+00  1.00000000E+00  1.00000000E+00
  1.00000000E+00  0.00000000E+00  0.00000000E+00  1.00000000E+00  0.00000000E+00
  0.00000000E+00  0.00000000E+00  1.00000000E+00  0.00000000E+00  0.00000000E+00
  0.00000000E+00  1.00000000E+00  0.00000000E+00  0.00000000E+00  0.00000000E+00
  1.00000000E+00  0.00000000E+00  0.00000000E+00  0.00000000E+00
Virial Ratio                               R      2.008642468472165E+00
SCF Energy                                 R     -7.803012299174618E+01
Total Energy                               R     -7.803012299174618E+01
RMS Force                                  R      1.944764792879373E-06
RMS Density                                R      7.713956523803386E-09
External E-field                           R   N=          35
  0.00000000E+00  0.00000000E+00  0.00000000E+00  0.00000000E+00  0.00000000E+00
  0.00000000E+00  0.00000000E+00  0.00000000E+00  0.00000000E+00  0.00000000E+00
  0.00000000E+00  0.00000000E+00  0.00000000E+00  0.00000000E+00  0.00000000E+00
  0.00000000E+00  0.00000000E+00  0.00000000E+00  0.00000000E+00  0.00000000E+00
  0.00000000E+00  0.00000000E+00  0.00000000E+00  0.00000000E+00  0.00000000E+00
  0.00000000E+00  0.00000000E+00  0.00000000E+00  0.00000000E+00  0.00000000E+00
  0.00000000E+00  0.00000000E+00  0.00000000E+00  0.00000000E+00  0.00000000E+00
IOpCl                                      I                0
IROHF                                      I                0
Alpha Orbital Energies                     R   N=          26
 -1.01613576E+01 -1.01337988E+01 -7.73076417E-01 -5.83832280E-01 -4.39955674E-01
 -4.29555094E-01 -3.72390917E-01 -2.01272943E-01 -8.84496171E-02  1.18119506E-01
  1.65873722E-01  1.68151798E-01  1.91807212E-01  2.62694236E-01  7.16018575E-01
  7.16826392E-01  7.31395254E-01  7.70643552E-01  7.95115697E-01  8.43653545E-01
  9.39656744E-01  1.00327624E+00  1.05753877E+00  1.08209451E+00  1.46332657E+00
  1.86355283E+00
Alpha MO coefficients                      R   N=         676
 -1.64142545E-02 -4.26297975E-03 -6.66471741E-04  8.07125036E-04 -4.99230879E-04
  2.20231189E-02  1.07579879E-02 -7.81840008E-03  6.54838371E-03  9.85538844E-01
  1.04079407E-01  5.71920303E-04  4.85087251E-03 -1.18065641E-03 -6.58507321E-02
  2.13220171E-03 -1.77861160E-02  6.01129559E-03 -1.52313092E-03  1.88189098E-03
 -9.60684552E-04  1.84641699E-03 -1.52304274E-03  1.87996402E-03 -5.78876297E-04
  1.65246600E-02  9.86086162E-01  1.11818705E-01  2.46396796E-04  5.68398791E-04
 -6.63633857E-05 -8.99601175E-02 -4.48466386E-03  1.14883557E-03 -2.12065215E-03
  1.60509645E-02 -7.81332187E-04  3.38459488E-04  1.26795878E-05  1.31116498E-04
  2.04869596E-02 -8.59579845E-03  7.74042952E-03 -5.66676358E-03  1.05452356E-04
  1.60059162E-02 -5.66150716E-04  1.52897835E-02  1.04708484E-04  1.60049668E-02
 -1.30590507E-03  1.66442826E-03 -1.84950641E-01  1.77445204E-01  5.09028820E-02
 -1.89139336E-02  2.57557844E-02  5.06614187E-01  2.81200101E-02  9.84886308E-03
  8.34680934E-03 -1.25231489E-01  1.36115855E-01 -4.08916404E-02  1.06195484E-01
 -4.70936422E-02  2.69725078E-01  1.09753085E-02  5.75821588E-02 -1.23480666E-02
  9.60767746E-02 -7.96311440E-05  8.19467454E-02  2.91413110E-03  9.60686074E-02
 -7.78607066E-05  7.50391179E-02 -1.48971642E-03  1.02291030E-01 -9.44757338E-02
  1.41205395E-01 -9.82107427E-02  8.46753596E-02 -4.01092097E-01  5.96426533E-02
 -3.96331820E-02  3.52219979E-02 -1.56203635E-01  1.61219960E-01  8.73790399E-02
  1.00420272E-01  5.61108523E-03  5.09796822E-01  3.17601571E-02  1.08146257E-01
 -1.87575783E-02 -9.73061535E-02 -4.70087224E-02 -1.16770161E-01 -4.86089935E-02
 -9.73110324E-02 -4.70092089E-02  1.72519261E-01  8.30171298E-02  1.18289799E-02
 -1.25591366E-02  1.43161580E-01  3.33710684E-01 -4.00665145E-02 -5.25532687E-02
  1.33023672E-01  2.65362974E-01 -2.42283572E-02  4.11319632E-02 -4.60067150E-02
  1.69701259E-01  5.06896579E-02  5.27644807E-02 -1.30732064E-01  7.40088387E-02
  3.13524871E-02  2.03162791E-02  1.39698302E-01  1.23542980E-01 -1.78377588E-01
 -1.26530832E-01  1.39912934E-01  1.23725049E-01  8.58017939E-02  1.05412747E-01
  1.31326904E-05 -1.44398415E-05 -1.34610129E-01  9.83804140E-02  3.38535156E-01
 -4.23311365E-05 -1.06788458E-01  7.80531168E-02  2.68598539E-01  2.14651085E-05
 -2.27773770E-05 -3.63556185E-02  2.65863864E-02  9.15340313E-02 -7.95392643E-05
 -2.74246624E-02  2.00397274E-02  6.90125232E-02  2.14152929E-01  1.98249138E-01
 -1.02472904E-04 -8.00332207E-05 -2.14007799E-01 -1.98110249E-01  2.25011520E-05
  2.88975741E-05 -2.20556537E-02  1.66984975E-02  3.05628464E-01 -5.40704420E-02
  1.37259839E-01  1.40107245E-01  2.65726610E-01 -5.14108933E-02  1.20618847E-01
  1.09659009E-02 -1.39390863E-03 -3.01764172E-01  5.33355988E-02 -1.35550093E-01
 -9.63273811E-02 -1.55983721E-01  1.05713374E-02 -6.51350155E-02  9.32911795E-03
 -6.65014101E-03 -1.83097217E-01 -1.85810542E-01  9.36535329E-03 -6.60887898E-03
 -2.00438277E-01 -2.44831387E-01  2.89635990E-02 -3.21937767E-02 -2.98589399E-02
  1.34878827E-01 -5.10251155E-02 -1.43702875E-01 -8.87126786E-02  5.05642501E-02
 -4.99619544E-02 -1.16348475E-01  9.55070799E-02 -5.46520466E-02 -4.00621048E-01
  9.45648793E-02  6.05786764E-01 -4.21645860E-02 -3.84964231E-01  9.49930061E-02
  6.51416313E-02  1.48286226E-01 -8.47995486E-02 -1.43872779E-01  6.51746204E-02
  1.48336081E-01 -1.23314297E-01 -1.93944690E-01 -4.70055222E-07  2.64823444E-06
  2.10683245E-02 -1.53799338E-02 -5.29498632E-02 -7.49912540E-06 -8.87850800E-03
  6.45971611E-03  2.23336982E-02  1.13203054E-06  6.81087988E-07 -1.71198182E-01
  1.24921041E-01  4.30274261E-01 -1.47316061E-05 -2.27033218E-01  1.65656519E-01
  5.70613942E-01 -1.14398832E-01 -2.39850148E-01  1.57043837E-05  3.14478641E-05
  1.14373228E-01  2.39806076E-01  5.50647052E-06  9.48052273E-06 -1.26110200E-01
  6.22634274E-02 -2.09747738E-02  1.74632724E-01 -5.89844370E-02  1.61776746E+00
 -1.75238429E-01  5.70288025E-01 -2.35079430E-01 -5.88668306E-02  5.16736023E-02
  1.42795852E-01  8.28403656E-02  3.27690173E-02  6.74933362E-01  3.84462007E-01
  2.43330941E-01  8.23135389E-02 -3.70473094E-02 -1.03153470E+00  2.62698762E-03
 -4.62950722E-01 -3.70402610E-02 -1.03143806E+00 -3.84940969E-02 -8.86706278E-01
 -1.18590267E-01  5.07086806E-02 -1.46629406E-01 -8.36164715E-02 -3.35374628E-02
  1.60683194E+00 -3.75272430E-01 -3.50777029E-01 -4.56665997E-02  8.58412258E-02
 -3.43994251E-02 -1.38867988E-01 -1.57818639E-01 -9.53818109E-03 -1.10214779E+00
 -2.48719224E-01 -4.95031982E-01  4.42972574E-02  1.16461599E-02 -2.71637897E-01
 -8.46910676E-02 -1.37497030E+00  1.18475254E-02 -2.68285224E-01  9.04843206E-02
  1.18330316E+00  1.56964425E-04 -7.50176319E-05 -1.36956777E-01  1.00223351E-01
  3.44853545E-01 -2.06843180E-03 -4.64513358E-01  3.39955452E-01  1.16935699E+00
 -9.87487077E-05  5.28741906E-05  2.72588356E-02 -1.96483562E-02 -6.82958496E-02
  1.16190973E-03  1.16605846E-01 -8.45166434E-02 -2.92935982E-01 -8.19108625E-02
 -1.32426499E+00  1.35112190E-04  2.13949880E-03  8.18512383E-02  1.32452226E+00
 -9.12669948E-05 -1.12785598E-03 -2.84591885E-02 -3.63451275E-03  2.18989432E-01
  2.18731634E-01  2.35311185E-02  4.60897330E-01  1.05050769E+00  7.61783210E-01
  1.96481350E-01  5.83048287E-02 -1.73374761E-02 -1.20948730E-01 -1.65172438E-01
 -1.50822899E-04 -9.06217575E-01 -3.98312574E-01 -6.64724568E-01  3.45801453E-02
 -3.69692657E-02 -7.87688711E-01  7.30531168E-02  1.32190365E+00 -3.70072677E-02
 -7.88629414E-01  9.65608466E-03  9.55240599E-01  8.55108252E-02 -3.45331911E-02
 -1.66575267E-01  1.85592319E-01 -1.20183535E-01 -1.19296312E+00 -9.45757541E-01
  1.05485075E+00 -6.82614170E-01 -9.22974802E-02  4.54978417E-02 -3.17812816E-01
  1.34861734E-01 -1.65589554E-01  1.32952911E+00 -1.13283795E+00  6.55417154E-01
 -6.40925622E-01 -5.50492683E-02 -2.02777132E-01 -6.16139155E-02 -1.13424217E-01
 -5.50380431E-02 -2.03215449E-01  6.33108213E-02  3.87971758E-01  6.63719309E-07
  2.45490871E-05  1.75217981E-01 -1.28115131E-01 -4.40375043E-01  2.81746675E-04
 -3.02221176E-01  2.20911942E-01  7.60005380E-01  6.99705636E-07  4.28824507E-05
  2.79135911E-01 -2.03692763E-01 -7.02347870E-01 -7.53344539E-05 -1.71468070E-01
  1.25147691E-01  4.32116792E-01 -4.03624639E-01 -2.11938219E-02  2.30995482E-04
 -5.60637112E-05  4.03406332E-01  2.10887791E-02 -2.00777403E-04  5.28633343E-05
 -1.03615662E-02  3.26068585E-02  1.98312765E-01 -6.21559486E-01  2.59469388E-01
  3.02422156E-01 -2.32903265E-01  9.27444906E-01 -3.62159328E-01 -4.21841226E-03
  1.75625043E-02 -4.55911201E-01 -5.30474159E-02 -1.65527197E-01  4.07167086E-01
  5.75506137E-01  6.65424575E-02  2.09314366E-01 -2.85131223E-01 -8.69422324E-02
  2.15516959E-01 -1.33621065E-01 -2.85508135E-01 -8.70206312E-02 -4.06401858E-01
  4.10149631E-02  2.15926091E-02 -4.61315796E-02 -7.79571887E-01  5.70795498E-02
 -3.26685985E-01 -1.79689120E-01  1.25883821E+00  1.18347309E-01  4.66440301E-01
 -4.47705626E-02  6.88089232E-02 -3.41038552E-02 -2.38617024E-01  5.57977725E-02
 -2.91966448E-01  3.29878461E-02  1.43482577E-01 -2.86097559E-02 -8.71430672E-02
  2.56055366E-02  5.49342408E-01  2.13950864E-01 -8.72241419E-02  2.55900151E-02
 -2.76966901E-01 -1.33490303E-02 -3.37214758E-02  1.11049535E-01  2.19146919E-01
 -2.51862036E-01  1.60332892E-01 -6.38635433E-01 -5.19311593E-01  5.43529317E-01
 -3.64513112E-01 -2.06906455E-02  3.75960828E-02  3.27555307E-01 -8.80701091E-01
  3.85596370E-01  6.94004768E-01 -6.51881108E-01  1.08002519E+00 -5.72463181E-01
 -8.73307219E-02 -1.06352614E-01 -3.31270776E-02 -7.51885746E-02 -8.73898360E-02
 -1.06346137E-01  1.96172709E-01 -1.75399499E-01 -1.32926240E-05  4.18893301E-05
  2.40319726E-01 -1.75468842E-01 -6.03954016E-01 -1.33173639E-04 -5.04313709E-01
  3.68183788E-01  1.26761421E+00  5.30810600E-06  2.35162559E-05 -2.59303871E-01
  1.89274926E-01  6.52544552E-01  1.99148330E-05  3.77062613E-01 -2.75384917E-01
 -9.49018782E-01 -2.85734335E-01 -2.37904537E-01  2.10725214E-05  4.94758454E-05
  2.85710125E-01  2.37720461E-01  1.71607649E-04  3.98193744E-05 -2.99790991E-02
  3.90185679E-02 -2.51569380E-01 -5.87522228E-01  7.06042319E-02 -2.05956458E-02
  6.36892566E-01  1.33838062E+00 -1.35499457E-01  3.38034305E-02 -8.61634512E-02
  6.81284669E-01  4.56264706E-01  1.38463116E-01 -9.73035734E-02 -1.29637694E+00
 -8.54288657E-01 -2.67536974E-01 -1.78715096E-01 -3.38213209E-01 -3.26753126E-02
  4.63456964E-01 -1.78931219E-01 -3.38499494E-01  9.73680911E-02  6.54946215E-01
  6.35217492E-02 -8.89272665E-02 -1.24955338E-01 -4.87237355E-01  9.16624142E-02
  1.85600673E-01  5.47881456E-01  5.93427234E-01  4.56163758E-02  7.19241651E-03
  2.19252266E-01 -2.93301328E-01 -3.92855420E-02 -1.05315766E-01 -1.21527582E-01
  1.04837419E-01 -2.17291645E-01  1.04882542E-01  5.71934518E-01 -5.58963061E-01
  3.09872548E-01  3.25357570E-01  5.71637267E-01 -5.58870729E-01  7.56262354E-01
 -6.08260032E-01  8.21071990E-06  2.05349041E-05 -2.65215487E-01  1.93389244E-01
  6.66725672E-01 -6.21874862E-05  3.29667606E-01 -2.40330831E-01 -8.28583025E-01
  8.69899523E-06 -4.02491695E-06 -5.45278784E-02  3.97463046E-02  1.37038699E-01
  3.67146109E-05  4.47756022E-02 -3.27272219E-02 -1.12683222E-01 -7.87185900E-01
  1.23842635E+00  1.57549753E-04 -1.12841907E-04  7.87244107E-01 -1.23839395E+00
  1.42313324E-04 -8.74966528E-05 -3.72846104E-02  5.24200254E-02 -5.55341870E-01
 -3.18254975E-01 -1.28573550E-01  5.79311588E-02  6.28834561E-01  2.49133425E-01
  1.77963052E-01 -6.26084420E-03 -3.50379286E-02 -2.07256467E-01 -1.56203480E-01
 -3.71096839E-02 -3.77356790E-03  5.46882838E-01  2.16324101E-01  1.54756425E-01
  1.50436506E-01 -3.73165684E-01 -1.13641149E+00  1.45022629E+00  1.50665530E-01
 -3.73335191E-01 -1.53103179E-01 -2.84933440E-01  6.65068770E-02 -2.39067985E-01
  1.67312124E-01 -1.56597235E-01  1.12032302E-01  6.88733291E-02 -6.14311892E-01
  1.83866162E-01 -2.97829154E-01 -5.94027840E-02  3.39096428E-01  3.41434604E-01
  6.56615525E-02  1.16795591E-01 -1.70988831E-01 -5.77780440E-01  2.49148431E-01
 -3.02185424E-01  5.76899135E-01 -5.29385625E-01  8.03880877E-02 -3.10607538E-01
  5.76966038E-01 -5.29499797E-01 -9.23563422E-01  1.21063689E+00  3.38977845E-02
 -7.60686708E-01 -2.72569318E-03 -5.90066775E-02  1.59917262E-02  5.66354798E-01
 -5.69445724E-01  4.69949095E-01 -3.62799048E-01  2.29038713E-02 -1.61806302E+00
 -9.97755948E-03 -1.75600739E-01  4.69904692E-02  2.55457594E+00  1.37825246E-02
  8.52903851E-01 -2.42095740E-01  1.58600595E-01 -5.32411240E-01  7.38979181E-02
 -4.50903915E-01  1.58616670E-01 -5.32264475E-01 -1.20326160E-01 -7.58572348E-01
 -6.43887020E-02 -1.93380637E+00 -1.22287756E-02 -3.12290531E-03 -3.97109279E-03
  4.63421384E+00  6.34911595E-01 -3.21357521E-01  3.46027047E-01  3.57756555E-02
  8.18293295E-01  3.16589709E-02 -1.26295418E-02  1.62469498E-02 -2.53339139E+00
  6.13538818E-01 -9.39032558E-01  5.16673655E-01 -3.48031493E-01 -5.70402357E-01
 -2.27027545E-01 -5.64371343E-01 -3.47949571E-01 -5.70416507E-01  2.54310803E-01
  1.40271203E-01
Total SCF Density                          R   N=         351
  2.03754161E+00  1.32801843E-01  1.08814143E-01 -1.26107521E-03 -1.77040216E-05
  3.10892021E-01  6.09438430E-03 -6.91046117E-03 -1.70462931E-03  3.04322997E-01
 -2.26798239E-03  1.99643577E-03  1.08716013E-02 -6.34583372E-03  2.90977467E-01
 -4.63341247E-01  2.50525126E-01  1.74171547E-02 -2.94475197E-02  1.54709059E-02
  9.38306100E-01 -2.11136708E-02  8.86351582E-03  2.54252297E-01  2.33767065E-03
  1.05763343E-02  6.79126928E-02  2.24126941E-01  2.24786677E-03 -3.32794606E-04
  1.03420510E-02  2.19067360E-01  6.11279040E-03 -1.56153352E-02  1.32826249E-02
  1.66879713E-01 -9.05992146E-03  3.62291843E-03  8.25047203E-03  2.93176007E-03
  2.28401035E-01  3.15549941E-02  1.39862619E-02  8.88169068E-03  1.82269857E-01
  7.41796186E-03 -1.29171590E-02 -3.27463150E-02  3.19129636E-02 -2.22879727E-02
  7.11261590E-02  3.27945418E-02  3.48059513E-03  1.20349153E-02  2.05395201E+00
 -1.78188921E-02  1.17409415E-02  3.95263451E-02 -4.14447565E-02  2.77525024E-02
 -9.69104274E-03 -7.88565891E-04 -2.63461125E-02  7.33305627E-03  9.46257727E-02
  1.33185397E-01  4.78099821E-02 -4.17722903E-02 -1.02301483E-01  1.08384152E-01
 -1.02786240E-01 -1.98247375E-01 -8.96310336E-02  1.02150718E-01 -8.96103902E-02
  4.14002300E-03 -8.05017934E-03  2.66952749E-01 -4.32315458E-02  4.49769314E-02
  1.03046644E-01 -9.85098353E-02  9.19357750E-02  1.52012239E-01  1.25288675E-01
 -2.08896131E-02  7.36343218E-02  5.01559072E-02 -1.90393087E-02  3.57408392E-02
  3.76006861E-01  3.15731439E-02 -2.96776790E-02 -1.01246405E-01  9.40721181E-02
  9.41079716E-03 -1.23008564E-01 -9.63342535E-02  6.44395740E-02  4.05902155E-03
 -1.29139603E-02  2.32479543E-03  8.75556332E-02 -8.88990896E-02  8.14592400E-02
  8.33370280E-02 -3.43993302E-02  3.90622771E-02 -2.38576624E-02  2.24491125E-02
 -3.29602472E-01 -1.19059344E-01 -3.22484577E-02 -3.80127690E-02 -5.09791520E-01
  3.52078643E-01  1.45269806E-02 -3.49878276E-01  1.07353316E-01  1.46149580E+00
 -8.39626784E-03 -8.39931297E-03 -5.41747483E-02  4.28330992E-02 -5.70736993E-02
 -5.20835736E-02 -4.53411076E-02  4.44173191E-02 -4.92496641E-02  3.73342794E-03
 -7.41898224E-04  1.30511593E-01  3.19200427E-02  3.64175284E-02 -2.71071491E-03
  6.70915855E-02 -5.34953030E-03  2.62355118E-02  6.94642814E-02 -1.03562259E-01
  7.45411888E-02  7.97207152E-02  9.36683795E-02 -2.73921344E-02  5.85771193E-02
  9.37468064E-03 -2.96169254E-02  5.90571337E-02  3.47598990E-01 -7.28626972E-02
 -3.32662274E-01  4.06318892E-02  3.30162719E-01 -1.78475078E-03 -1.09604748E-02
 -6.48148105E-02  6.39620828E-02  1.37054964E-02 -4.38745661E-02 -6.35565646E-02
  3.89960589E-02  9.45904259E-03 -1.23929757E-03  8.30451147E-03  2.85399811E-02
 -8.36629114E-02  5.13389135E-02  9.55064658E-02  1.01917211E-02 -7.62557735E-02
  3.80285808E-02 -4.85154888E-02  4.51215249E-02 -3.35401354E-02  1.67414435E-01
  1.18187155E-01  1.44509850E-01 -2.14090992E-02  1.22830218E-01  9.87431748E-02
 -1.15679643E-04 -5.98437123E-03 -5.77218412E-03 -2.48014016E-02  5.36003015E-02
 -6.61277013E-03 -3.55232727E-03 -4.25404052E-02  4.76536853E-02  1.76818245E-01
  3.37280935E-02 -4.61210235E-04 -4.41982496E-02  1.71441154E-01  9.94014278E-02
 -2.26516675E-02 -4.50321332E-02  1.15927126E-01  8.07347157E-02 -5.55097546E-03
  2.15421733E-03  7.12546103E-03 -1.05895893E-01  7.86583544E-02  1.01042479E-01
 -6.27241255E-03 -1.08613874E-01  6.30285646E-02  1.47754707E-01  1.58136350E-01
 -5.63418903E-02  5.48532640E-02 -1.82534941E-01 -1.02314105E-01 -4.29382913E-02
  1.68575537E-01 -1.39032883E-01 -7.35510476E-02 -3.39758539E-02  1.50863622E-02
 -1.48162836E-02  3.21290614E-02  2.42677532E-02  5.73017428E-03 -9.55755838E-02
  3.22611708E-02  3.44353903E-02  2.83102019E-03 -2.58721397E-02 -5.58855515E-02
  1.85771824E-01  1.59397394E-02  1.98589038E-02 -1.54619320E-01 -9.37242177E-02
 -3.43270185E-02  4.18587151E-02 -1.12600890E-01 -5.86932368E-02 -2.77761323E-02
  3.75808544E-02 -2.98408986E-02  7.62080696E-02  7.34990089E-02  8.97500692E-03
 -1.53037964E-01  4.80964282E-02  8.88987557E-02 -6.68007065E-03 -4.75802064E-02
 -6.64270625E-02  1.49392932E-01  1.47687010E-01 -4.85207913E-02  4.51254412E-02
  8.18088293E-02  8.33186723E-02 -1.71719628E-01  1.44519989E-01  7.01056222E-02
  5.61054029E-02 -1.31268948E-01 -1.19566308E-04 -5.98219207E-03  2.54070985E-02
 -4.75714163E-02 -2.47624738E-02 -6.57721192E-03  1.99492066E-02 -5.97140390E-02
 -1.14325568E-02 -6.50118236E-03 -2.19475128E-02 -2.58800234E-02 -4.75885411E-02
  1.76822706E-01  3.37204947E-02 -4.55644379E-04  6.25841466E-02  9.35836807E-02
 -1.68970085E-01 -2.26377436E-02  3.96826131E-02  5.41504839E-02 -1.32192264E-01
 -5.56782962E-03  2.16485391E-03  3.59764522E-02 -1.26988247E-01  6.11489787E-03
  1.01111053E-01  1.54775211E-02 -1.24525685E-01  8.33249823E-03 -2.19497650E-02
  1.03976766E-03 -5.58924300E-02 -6.64393510E-02  1.47759147E-01  1.58144787E-01
  8.70905227E-03 -7.16354200E-03 -3.42333904E-02  8.95349658E-03 -1.62179263E-02
 -9.18938022E-02 -3.70234782E-02  4.14887594E-02 -2.67732286E-02 -4.25164427E-02
  4.50457564E-02  1.87579291E-01  1.36704182E-01  3.49444786E-02  8.31790920E-02
  9.82537716E-02  1.42043316E-01 -2.14486118E-03 -1.49770969E-02 -2.89721520E-02
  3.57139460E-02  7.18803834E-02 -1.49851029E-02 -2.89874792E-02  1.96279344E-01
  2.23339341E-02 -1.43203502E-02 -8.46265192E-02  2.82971957E-02 -4.18808570E-02
 -9.16201216E-02 -5.75075558E-02  5.46460777E-02 -3.87427294E-02  5.54951962E-02
 -1.62633854E-02  2.19386657E-01  1.56485565E-01  4.18558714E-02 -1.33639991E-01
  1.13618409E-01  1.67980578E-01 -3.56321279E-03 -1.68639249E-02 -3.58942029E-02
  6.52765495E-02  1.12147778E-01 -1.68747453E-02 -3.59184211E-02  1.92465731E-01
  2.31677394E-01
Mulliken Charges                           R   N=           6
 -6.97830923E-01 -1.24748121E-01  2.29681180E-01  2.21931948E-01  2.29666761E-01
  1.41299154E-01
ONIOM Charges                              I   N=          16
           0           0           0           0           0           0
           0           0           0           0           0           0
           0           0           0           0
ONIOM Multiplicities                       I   N=          16
           1           0           0           0           0           0
           0           0           0           0           0           0
           0           0           0           0
Atom Layers                                I   N=           6
           1           1           1           1           1           1
Atom Modifiers                             I   N=           6
           0           0           0           0           0           0
Force Field                                I                0
Int Atom Modified Types                    I   N=           6
           0           0           0           0           0           0
Link Atoms                                 I   N=           6
           0           0           0           0           0           0
Atom Modified MM Charges                   R   N=           6
  0.00000000E+00  0.00000000E+00  0.00000000E+00  0.00000000E+00  0.00000000E+00
  0.00000000E+00
Link Distances                             R   N=          24