 Entering Gaussian System, Link 0=/Johnny/gnovikov/gauss/g09/g09
 Initial command:
 /Johnny/gnovikov/gauss/g09/l1.exe "/Johnny/gnovikov/gauss/scr/Gau-9255.inp" -scrdir="/Johnny/gnovikov/gauss/scr/"
 Entering Link 1 = /Johnny/gnovikov/gauss/g09/l1.exe PID=      9257.
  
 Copyright (c) 1988,1990,1992,1993,1995,1998,2003,2009,2013,
            Gaussian, Inc.  All Rights Reserved.
  
 This is part of the Gaussian(R) 09 program.  It is based on
 the Gaussian(R) 03 system (copyright 2003, Gaussian, Inc.),
 the Gaussian(R) 98 system (copyright 1998, Gaussian, Inc.),
 the Gaussian(R) 94 system (copyright 1995, Gaussian, Inc.),
 the Gaussian 92(TM) system (copyright 1992, Gaussian, Inc.),
 the Gaussian 90(TM) system (copyright 1990, Gaussian, Inc.),
 the Gaussian 88(TM) system (copyright 1988, Gaussian, Inc.),
 the Gaussian 86(TM) system (copyright 1986, Carnegie Mellon
 University), and the Gaussian 82(TM) system (copyright 1983,
 Carnegie Mellon University). Gaussian is a federally registered
 trademark of Gaussian, Inc.
  
 This software contains proprietary and confidential information,
 including trade secrets, belonging to Gaussian, Inc.
  
 This software is provided under written license and may be
 used, copied, transmitted, or stored only in accord with that
 written license.
  
 The following legend is applicable only to US Government
 contracts under FAR:
  
                    RESTRICTED RIGHTS LEGEND
  
 Use, reproduction and disclosure by the US Government is
 subject to restrictions as set forth in subparagraphs (a)
 and (c) of the Commercial Computer Software - Restricted
 Rights clause in FAR 52.227-19.
  
 Gaussian, Inc.
 340 Quinnipiac St., Bldg. 40, Wallingford CT 06492
  
  
 ---------------------------------------------------------------
 Warning -- This program may not be used in any manner that
 competes with the business of Gaussian, Inc. or will provide
 assistance to any competitor of Gaussian, Inc.  The licensee
 of this program is prohibited from giving any competitor of
 Gaussian, Inc. access to this program.  By using this program,
 the user acknowledges that Gaussian, Inc. is engaged in the
 business of creating and licensing software in the field of
 computational chemistry and represents and warrants to the
 licensee that it is not a competitor of Gaussian, Inc. and that
 it will not use this program in any manner prohibited above.
 ---------------------------------------------------------------
  

 Cite this work as:
 Gaussian 09, Revision D.01,
 M. J. Frisch, G. W. Trucks, H. B. Schlegel, G. E. Scuseria, 
 M. A. Robb, J. R. Cheeseman, G. Scalmani, V. Barone, B. Mennucci, 
 G. A. Petersson, H. Nakatsuji, M. Caricato, X. Li, H. P. Hratchian, 
 A. F. Izmaylov, J. Bloino, G. Zheng, J. L. Sonnenberg, M. Hada, 
 M. Ehara, K. Toyota, R. Fukuda, J. Hasegawa, M. Ishida, T. Nakajima, 
 Y. Honda, O. Kitao, H. Nakai, T. Vreven, J. A. Montgomery, Jr., 
 J. E. Peralta, F. Ogliaro, M. Bearpark, J. J. Heyd, E. Brothers, 
 K. N. Kudin, V. N. Staroverov, T. Keith, R. Kobayashi, J. Normand, 
 K. Raghavachari, A. Rendell, J. C. Burant, S. S. Iyengar, J. Tomasi, 
 M. Cossi, N. Rega, J. M. Millam, M. Klene, J. E. Knox, J. B. Cross, 
 V. Bakken, C. Adamo, J. Jaramillo, R. Gomperts, R. E. Stratmann, 
 O. Yazyev, A. J. Austin, R. Cammi, C. Pomelli, J. W. Ochterski, 
 R. L. Martin, K. Morokuma, V. G. Zakrzewski, G. A. Voth, 
 P. Salvador, J. J. Dannenberg, S. Dapprich, A. D. Daniels, 
 O. Farkas, J. B. Foresman, J. V. Ortiz, J. Cioslowski, 
 and D. J. Fox, Gaussian, Inc., Wallingford CT, 2013.
 
 ******************************************
 Gaussian 09:  AM64L-G09RevD.01 24-Apr-2013
                14-Oct-2017 
 ******************************************
 %RWF=./tmp/2366672950816040391/rwf
 %Int=./tmp/2366672950816040391/int
 %D2E=./tmp/2366672950816040391/d2e
 %Scr=./tmp/2366672950816040391/skr
 %NoSave
 %chk=./tmp/2366672950816040391/chk
 %nproc=1
 Will use up to    1 processors via shared memory.
 %mem=1000mb
 ------------------------
 # B3lyp/3-21g nosym freq
 ------------------------
 1/10=4,30=1,38=1/1,3;
 2/12=2,15=1,17=6,18=5,40=1/2;
 3/5=5,11=2,16=1,25=1,30=1,71=2,74=-5,140=1/1,2,3;
 4//1;
 5/5=2,38=5,98=1/2;
 8/6=4,10=90,11=11/1;
 11/6=1,8=1,9=11,15=111,16=1,31=1/1,2,10;
 10/6=1,31=1/2;
 6/7=2,8=2,9=2,10=2,18=1,28=1/1;
 7/8=1,10=1,25=1,30=1/1,2,3,16;
 1/10=4,30=1/3;
 99//99;


 Symbolic Z-matrix:
 Charge =  0 Multiplicity = 1
 6                    -0.36532   0.05989  -0.16277 
 6                     0.62393  -0.86035   0.49793 
 1                    -0.54613   0.94142   0.48218 
 1                    -1.31786  -0.41634  -0.40355 
 1                     0.07678   0.48727  -1.08342 
 1                     1.5286   -0.2119    0.66963 
 

 GradGradGradGradGradGradGradGradGradGradGradGradGradGradGradGradGradGrad
 Berny optimization.
 Initialization pass.
 Trust Radius=3.00D-01 FncErr=1.00D-07 GrdErr=1.00D-07
 Number of steps in this run=      2 maximum allowed number of steps=      2.
 GradGradGradGradGradGradGradGradGradGradGradGradGradGradGradGradGradGrad

                          Input orientation:                          
 ---------------------------------------------------------------------
 Center     Atomic      Atomic             Coordinates (Angstroms)
 Number     Number       Type             X           Y           Z
 ---------------------------------------------------------------------
      1          6           0       -0.365319    0.059895   -0.162767
      2          6           0        0.623930   -0.860345    0.497930
      3          1           0       -0.546131    0.941418    0.482183
      4          1           0       -1.317857   -0.416335   -0.403554
      5          1           0        0.076781    0.487268   -1.083423
      6          1           0        1.528596   -0.211900    0.669629
 ---------------------------------------------------------------------
                    Distance matrix (angstroms):
                    1          2          3          4          5
     1  C    0.000000
     2  C    1.503987   0.000000
     3  H    1.107130   2.148405   0.000000
     4  H    1.091834   2.186403   1.795434   0.000000
     5  H    1.107117   2.148514   1.745106   1.795477   0.000000
     6  H    2.086545   1.126225   2.381128   3.048903   2.381133
                    6
     6  H    0.000000
 Symmetry turned off by external request.
 Stoichiometry    C2H4
 Framework group  C1[X(C2H4)]
 Deg. of freedom    12
 Full point group                 C1      NOp   1
 Rotational constants (GHZ):    118.7233191     25.2278826     23.8160374
 Standard basis: 3-21G (6D, 7F)
    26 basis functions,    42 primitive gaussians,    26 cartesian basis functions
     8 alpha electrons        8 beta electrons
       nuclear repulsion energy        31.5697727473 Hartrees.
 NAtoms=    6 NActive=    6 NUniq=    6 SFac= 1.00D+00 NAtFMM=   60 NAOKFM=F Big=F
 Integral buffers will be    131072 words long.
 Raffenetti 2 integral format.
 Two-electron integral symmetry is turned off.
 One-electron integrals computed using PRISM.
 NBasis=    26 RedAO= T EigKep=  2.03D-02  NBF=    26
 NBsUse=    26 1.00D-06 EigRej= -1.00D+00 NBFU=    26
 ExpMin= 1.83D-01 ExpMax= 1.72D+02 ExpMxC= 1.72D+02 IAcc=1 IRadAn=         1 AccDes= 0.00D+00
 Harris functional with IExCor=  402 and IRadAn=       1 diagonalized for initial guess.
 HarFok:  IExCor=  402 AccDes= 0.00D+00 IRadAn=         1 IDoV= 1 UseB2=F ITyADJ=14
 ICtDFT=  3500011 ScaDFX=  1.000000  1.000000  1.000000  1.000000
 FoFCou: FMM=F IPFlag=           0 FMFlag=      100000 FMFlg1=           0
         NFxFlg=           0 DoJE=T BraDBF=F KetDBF=T FulRan=T
         wScrn=  0.000000 ICntrl=     500 IOpCl=  0 I1Cent=   200000004 NGrid=           0
         NMat0=    1 NMatS0=      1 NMatT0=    0 NMatD0=    1 NMtDS0=    0 NMtDT0=    0
 Symmetry not used in FoFCou.
 Keep R1 ints in memory in canonical form, NReq=942464.
 Requested convergence on RMS density matrix=1.00D-08 within 128 cycles.
 Requested convergence on MAX density matrix=1.00D-06.
 Requested convergence on             energy=1.00D-06.
 No special actions if energy rises.
 Integral accuracy reduced to 1.0D-05 until final iterations.
 Initial convergence to 1.0D-05 achieved.  Increase integral accuracy.
 SCF Done:  E(RB3LYP) =  -78.0301229917     A.U. after   12 cycles
            NFock= 12  Conv=0.77D-08     -V/T= 2.0086
 DoSCS=F DFT=T ScalE2(SS,OS)=  1.000000  1.000000
 Range of M.O.s used for correlation:     1    26
 NBasis=    26 NAE=     8 NBE=     8 NFC=     0 NFV=     0
 NROrb=     26 NOA=     8 NOB=     8 NVA=    18 NVB=    18
 Symmetrizing basis deriv contribution to polar:
 IMax=3 JMax=2 DiffMx= 0.00D+00
 G2DrvN: will do     7 centers at a time, making    1 passes.
 Calling FoFCou, ICntrl=  3107 FMM=F I1Cent=   0 AccDes= 0.00D+00.
 End of G2Drv F.D. properties file   721 does not exist.
 End of G2Drv F.D. properties file   722 does not exist.
 End of G2Drv F.D. properties file   788 does not exist.
          IDoAtm=111111
          Differentiating once with respect to electric field.
                with respect to dipole field.
          Differentiating once with respect to nuclear coordinates.
 Keep R1 ints in memory in canonical form, NReq=921684.
          There are    21 degrees of freedom in the 1st order CPHF.  IDoFFX=6 NUNeed=     3.
     18 vectors produced by pass  0 Test12= 6.86D-16 4.76D-09 XBig12= 1.73D+01 2.52D+00.
 AX will form    18 AO Fock derivatives at one time.
     18 vectors produced by pass  1 Test12= 6.86D-16 4.76D-09 XBig12= 8.58D-01 4.65D-01.
     18 vectors produced by pass  2 Test12= 6.86D-16 4.76D-09 XBig12= 7.83D-03 3.71D-02.
     18 vectors produced by pass  3 Test12= 6.86D-16 4.76D-09 XBig12= 3.62D-06 5.14D-04.
     15 vectors produced by pass  4 Test12= 6.86D-16 4.76D-09 XBig12= 2.01D-09 1.35D-05.
      3 vectors produced by pass  5 Test12= 6.86D-16 4.76D-09 XBig12= 4.41D-13 1.90D-07.
 InvSVY:  IOpt=1 It=  1 EMax= 1.78D-15
 Solved reduced A of dimension    90 with    21 vectors.
 Isotropic polarizability for W=    0.000000       20.63 Bohr**3.
 End of Minotr F.D. properties file   721 does not exist.
 End of Minotr F.D. properties file   722 does not exist.
 End of Minotr F.D. properties file   788 does not exist.

 **********************************************************************

            Population analysis using the SCF density.

 **********************************************************************

 Alpha  occ. eigenvalues --  -10.16136 -10.13380  -0.77308  -0.58383  -0.43996
 Alpha  occ. eigenvalues --   -0.42956  -0.37239  -0.20127
 Alpha virt. eigenvalues --   -0.08845   0.11812   0.16587   0.16815   0.19181
 Alpha virt. eigenvalues --    0.26269   0.71602   0.71683   0.73140   0.77064
 Alpha virt. eigenvalues --    0.79512   0.84365   0.93966   1.00328   1.05754
 Alpha virt. eigenvalues --    1.08209   1.46333   1.86355
          Condensed to atoms (all electrons):
               1          2          3          4          5          6
     1  C    5.571727   0.202217   0.314706   0.366616   0.314715  -0.072150
     2  C    0.202217   5.756951  -0.022974  -0.050813  -0.022979   0.262345
     3  H    0.314706  -0.022974   0.525824  -0.035065  -0.005158  -0.007014
     4  H    0.366616  -0.050813  -0.035065   0.526444  -0.035069   0.005954
     5  H    0.314715  -0.022979  -0.005158  -0.035069   0.525842  -0.007018
     6  H   -0.072150   0.262345  -0.007014   0.005954  -0.007018   0.676583
 Mulliken charges:
               1
     1  C   -0.697831
     2  C   -0.124748
     3  H    0.229681
     4  H    0.221932
     5  H    0.229667
     6  H    0.141299
 Sum of Mulliken charges =   0.00000
 Mulliken charges with hydrogens summed into heavy atoms:
               1
     1  C   -0.016551
     2  C    0.016551
 APT charges:
               1
     1  C   -0.075402
     2  C    0.024829
     3  H    0.049843
     4  H   -0.011187
     5  H    0.049796
     6  H   -0.037879
 Sum of APT charges =   0.00000
 APT charges with hydrogens summed into heavy atoms:
               1
     1  C    0.013050
     2  C   -0.013050
 Electronic spatial extent (au):  <R**2>=             94.0012
 Charge=              0.0000 electrons
 Dipole moment (field-independent basis, Debye):
    X=             -0.2015    Y=              2.3438    Z=             -0.7604  Tot=              2.4723
 Quadrupole moment (field-independent basis, Debye-Ang):
   XX=            -13.4149   YY=            -17.9480   ZZ=            -13.5003
   XY=              1.0979   XZ=             -0.6079   YZ=              1.9637
 Traceless Quadrupole moment (field-independent basis, Debye-Ang):
   XX=              1.5395   YY=             -2.9936   ZZ=              1.4541
   XY=              1.0979   XZ=             -0.6079   YZ=              1.9637
 Octapole moment (field-independent basis, Debye-Ang**2):
  XXX=             -4.4946  YYY=             20.5520  ZZZ=             -5.4682  XYY=             -4.0591
  XXY=              4.3351  XXZ=             -2.3840  XZZ=             -1.3975  YZZ=              5.7755
  YYZ=             -5.0058  XYZ=              0.8969
 Hexadecapole moment (field-independent basis, Debye-Ang**3):
 XXXX=            -49.3184 YYYY=            -60.7890 ZZZZ=            -30.3643 XXXY=             11.6157
 XXXZ=             -9.1170 YYYX=             14.4962 YYYZ=             14.4082 ZZZX=             -9.7411
 ZZZY=              8.6217 XXYY=            -17.8676 XXZZ=            -14.0267 YYZZ=            -15.3304
 XXYZ=              4.1230 YYXZ=             -5.5172 ZZXY=              4.3111
 N-N= 3.156977274727D+01 E-N=-2.432679963144D+02  KE= 7.736152842141D+01
  Exact polarizability:  23.789  -1.078  19.541   3.008  -1.162  18.548
 Approx polarizability:  30.391  -1.488  26.642   3.231  -1.545  25.089
 Calling FoFJK, ICntrl=    100127 FMM=F ISym2X=0 I1Cent= 0 IOpClX= 0 NMat=1 NMatS=1 NMatT=0.
 Full mass-weighted force constant matrix:
 Low frequencies --- -356.9114  -24.5634  -17.1229    0.0004    0.0004    0.0011
 Low frequencies ---   12.4424  844.7589  922.5136
 ******    1 imaginary frequencies (negative Signs) ****** 
 Diagonal vibrational polarizability:
        1.4901225       1.5736047       3.7823893
 Harmonic frequencies (cm**-1), IR intensities (KM/Mole), Raman scattering
 activities (A**4/AMU), depolarization ratios for plane and unpolarized
 incident light, reduced masses (AMU), force constants (mDyne/A),
 and normal coordinates:
                      1                      2                      3
                      A                      A                      A
 Frequencies --   -356.8978               844.7583               922.5135
 Red. masses --      1.2434                 1.0949                 1.8014
 Frc consts  --      0.0933                 0.4603                 0.9033
 IR Inten    --     19.4378                 0.7826                22.9724
  Atom  AN      X      Y      Z        X      Y      Z        X      Y      Z
     1   6     0.03  -0.02  -0.08     0.03  -0.02  -0.08    -0.06   0.17  -0.07
     2   6    -0.04   0.03   0.10     0.00   0.00   0.00     0.11  -0.13   0.08
     3   1    -0.01  -0.34   0.37     0.42  -0.17   0.26    -0.49   0.12  -0.15
     4   1     0.02  -0.01  -0.04    -0.13   0.10   0.34     0.12  -0.31   0.14
     5   1    -0.17   0.47   0.08    -0.44   0.19  -0.19    -0.44   0.08  -0.27
     6   1     0.24  -0.18  -0.62    -0.20   0.15   0.50     0.26  -0.37   0.21
                      4                      5                      6
                      A                      A                      A
 Frequencies --    990.8278              1313.2705              1377.1140
 Red. masses --      1.9223                 1.2743                 1.1650
 Frc consts  --      1.1119                 1.2948                 1.3017
 IR Inten    --      4.8650                31.0791                41.3858
  Atom  AN      X      Y      Z        X      Y      Z        X      Y      Z
     1   6     0.15  -0.05   0.07     0.09   0.08   0.01    -0.08   0.06  -0.05
     2   6    -0.15   0.14  -0.10    -0.06  -0.07   0.00     0.02   0.04  -0.01
     3   1    -0.25  -0.02  -0.07    -0.20  -0.14   0.21     0.14  -0.34   0.53
     4   1     0.30  -0.47   0.26     0.25  -0.33   0.19     0.01  -0.16   0.05
     5   1    -0.24  -0.03  -0.10    -0.04  -0.26  -0.19     0.39  -0.52  -0.07
     6   1     0.23  -0.54   0.25    -0.39   0.55  -0.32     0.18  -0.24   0.14
                      7                      8                      9
                      A                      A                      A
 Frequencies --   1525.7599              1529.6921              2786.6182
 Red. masses --      1.0737                 1.0624                 1.0799
 Frc consts  --      1.4727                 1.4646                 4.9405
 IR Inten    --      1.3798                19.7977               124.9022
  Atom  AN      X      Y      Z        X      Y      Z        X      Y      Z
     1   6     0.07  -0.02   0.03    -0.02   0.02   0.06     0.00   0.00   0.00
     2   6     0.01   0.02   0.00     0.00   0.00   0.01     0.07   0.04   0.01
     3   1    -0.46  -0.21   0.14     0.43   0.07   0.08    -0.01   0.05   0.04
     4   1    -0.22   0.60  -0.23     0.26  -0.18  -0.69     0.02   0.00   0.01
     5   1    -0.27  -0.33  -0.27    -0.40  -0.12  -0.22     0.03   0.02  -0.06
     6   1     0.03  -0.04   0.03     0.02  -0.01  -0.04    -0.82  -0.54  -0.17
                     10                     11                     12
                      A                      A                      A
 Frequencies --   2958.2390              2990.4156              3121.5697
 Red. masses --      1.0438                 1.0882                 1.0918
 Frc consts  --      5.3819                 5.7334                 6.2679
 IR Inten    --      2.4367                 2.4306                31.3548
  Atom  AN      X      Y      Z        X      Y      Z        X      Y      Z
     1   6     0.00  -0.05   0.02     0.03  -0.02  -0.08    -0.07  -0.05  -0.01
     2   6     0.00  -0.01   0.00     0.00   0.00   0.00     0.00   0.00   0.00
     3   1    -0.11   0.54   0.41    -0.11   0.57   0.39    -0.04   0.10   0.08
     4   1    -0.18  -0.11  -0.04     0.01  -0.01  -0.03     0.85   0.44   0.21
     5   1     0.28   0.25  -0.57    -0.28  -0.29   0.58     0.04   0.04  -0.12
     6   1     0.07   0.05   0.01     0.00   0.00   0.00     0.03   0.02   0.01

 -------------------
 - Thermochemistry -
 -------------------
 Temperature   298.150 Kelvin.  Pressure   1.00000 Atm.
 Atom     1 has atomic number  6 and mass  12.00000
 Atom     2 has atomic number  6 and mass  12.00000
 Atom     3 has atomic number  1 and mass   1.00783
 Atom     4 has atomic number  1 and mass   1.00783
 Atom     5 has atomic number  1 and mass   1.00783
 Atom     6 has atomic number  1 and mass   1.00783
 Molecular mass:    28.03130 amu.
 Principal axes and moments of inertia in atomic units:
                           1         2         3
     Eigenvalues --    15.20124  71.53756  75.77840
           X            0.70431   0.61366  -0.35690
           Y           -0.55586   0.78943   0.26042
           Z            0.44156   0.01497   0.89711
 This molecule is an asymmetric top.
 Rotational symmetry number  1.
 Rotational temperatures (Kelvin)      5.69781     1.21075     1.14299
 Rotational constants (GHZ):         118.72332    25.22788    23.81604
    1 imaginary frequencies ignored.
 Zero-point vibrational energy     121784.5 (Joules/Mol)
                                   29.10719 (Kcal/Mol)
 Vibrational temperatures:   1215.42  1327.29  1425.58  1889.50  1981.36
          (Kelvin)           2195.23  2200.88  4009.32  4256.24  4302.54
                             4491.24
 
 Zero-point correction=                           0.046385 (Hartree/Particle)
 Thermal correction to Energy=                    0.049400
 Thermal correction to Enthalpy=                  0.050344
 Thermal correction to Gibbs Free Energy=         0.024001
 Sum of electronic and zero-point Energies=            -77.983738
 Sum of electronic and thermal Energies=               -77.980723
 Sum of electronic and thermal Enthalpies=             -77.979779
 Sum of electronic and thermal Free Energies=          -78.006122
 
                     E (Thermal)             CV                S
                      KCal/Mol        Cal/Mol-Kelvin    Cal/Mol-Kelvin
 Total                   30.999              7.792             55.442
 Electronic               0.000              0.000              0.000
 Translational            0.889              2.981             35.927
 Rotational               0.889              2.981             19.050
 Vibrational             29.221              1.830              0.465
                       Q            Log10(Q)             Ln(Q)
 Total Bot       0.912245D-11        -11.039888        -25.420282
 Total V=0       0.197609D+11         10.295808         23.706973
 Vib (Bot)       0.481245D-21        -21.317634        -49.085666
 Vib (V=0)       0.104247D+01          0.018062          0.041589
 Electronic      0.100000D+01          0.000000          0.000000
 Translational   0.583338D+07          6.765920         15.579107
 Rotational      0.324957D+04          3.511826          8.086277
 -------------------------------------------------------------------
 Center     Atomic                   Forces (Hartrees/Bohr)
 Number     Number              X              Y              Z
 -------------------------------------------------------------------
      1        6           0.000000404    0.000000386   -0.000000765
      2        6          -0.000001104   -0.000001278   -0.000000825
      3        1          -0.000001419   -0.000001464    0.000001251
      4        1           0.000001114    0.000000876   -0.000004543
      5        1           0.000002676    0.000003063    0.000001567
      6        1          -0.000001671   -0.000001583    0.000003314
 -------------------------------------------------------------------
 Cartesian Forces:  Max     0.000004543 RMS     0.000001945

 GradGradGradGradGradGradGradGradGradGradGradGradGradGradGradGradGradGrad
 Berny optimization.
 Search for a local minimum.
 Step number   1 out of a maximum of    2
 All quantities printed in internal units (Hartrees-Bohrs-Radians)
 Second derivative matrix not updated -- analytic derivatives used.
 The second derivative matrix:
                          X1        Y1        Z1        X2        Y2
           X1           0.53443
           Y1           0.08180   0.44801
           Z1           0.02644   0.02091   0.41296
           X2          -0.11624   0.04696  -0.06960   0.30274
           Y2           0.01210  -0.08388   0.03630   0.05691   0.22686
           Z2          -0.05951   0.05016  -0.01392   0.10612  -0.04480
           X3          -0.05862   0.03614   0.02783  -0.00042   0.01405
           Y3           0.03094  -0.19216  -0.12818   0.00454  -0.02058
           Z3           0.01219  -0.10787  -0.10501   0.00243   0.00728
           X4          -0.24476  -0.10683  -0.04560  -0.02111  -0.00370
           Y4          -0.10702  -0.10728  -0.02660   0.02397   0.01140
           Z4          -0.04552  -0.02650  -0.06263  -0.01267  -0.00674
           X5          -0.08212  -0.03996   0.05985   0.00250   0.01100
           Y5          -0.04890  -0.06608   0.09207   0.00290  -0.01870
           Z5           0.07961   0.07736  -0.20802   0.00252   0.00948
           X6          -0.03270  -0.01811   0.00108  -0.16747  -0.09036
           Y6           0.03107   0.00140   0.00550  -0.13529  -0.11510
           Z6          -0.01321  -0.01406  -0.02339  -0.02880  -0.00152
                          Z2        X3        Y3        Z3        X4
           Z2           0.04971
           X3           0.00270   0.05538
           Y3           0.00348  -0.03466   0.21383
           Z3          -0.00695  -0.02555   0.12989   0.13041
           X4          -0.00463   0.00576   0.00308   0.00185   0.27267
           Y4           0.00427  -0.02338  -0.01305  -0.00430   0.11156
           Z4          -0.00984  -0.01715  -0.00910  -0.00521   0.05529
           X5          -0.00282  -0.00147  -0.00518   0.00945  -0.01108
           Y5           0.00627   0.00769   0.01024  -0.02622  -0.00590
           Z5          -0.01171   0.00806   0.00713  -0.01813  -0.00261
           X6          -0.04186  -0.00063   0.00128  -0.00036  -0.00148
           Y6          -0.01938   0.00016   0.00171   0.00122   0.00179
           Z6          -0.00728   0.00412  -0.00322   0.00489  -0.00430
                          Y4        Z4        X5        Y5        Z5
           Y4           0.11659
           Z4           0.02572   0.06682
           X5          -0.01012   0.02528   0.08870
           Y5          -0.00720   0.01344   0.04592   0.07870
           Z5          -0.00354   0.00581  -0.08748  -0.08848   0.23256
           X6           0.00498  -0.00523   0.00347  -0.00171  -0.00010
           Y6          -0.00046   0.00318  -0.00166   0.00304  -0.00196
           Z6           0.00445   0.00504  -0.00427   0.00292  -0.00051
                          X6        Y6        Z6
           X6           0.19882
           Y6           0.10393   0.10940
           Z6           0.04647   0.01144   0.02127
 ITU=  0
     Eigenvalues ---   -0.01111   0.03501   0.03961   0.09129   0.11029
     Eigenvalues ---    0.11268   0.15599   0.29379   0.46446   0.59576
     Eigenvalues ---    0.60692   0.76296
 Eigenvalue     1 is  -1.11D-02 should be greater than     0.000000 Eigenvector:
                          Z6        Z2        Y5        Y3        X6
   1                    0.56977  -0.40648  -0.39181   0.33437  -0.22606
                          Z3        Z1        Y6        X2        Z4
   1                   -0.21992   0.20178   0.16459   0.16172   0.13144
 Angle between quadratic step and forces=  85.14 degrees.
 Linear search not attempted -- first point.
 TrRot=  0.000000  0.000000  0.000001  0.000000 -0.000001  0.000000
 Variable       Old X    -DE/DX   Delta X   Delta X   Delta X     New X
                                 (Linear)    (Quad)   (Total)
    X1       -0.69035   0.00000   0.00000   0.00000   0.00000  -0.69035
    Y1        0.11318   0.00000   0.00000   0.00000   0.00000   0.11318
    Z1       -0.30758   0.00000   0.00000   0.00000   0.00000  -0.30759
    X2        1.17906   0.00000   0.00000   0.00000   0.00000   1.17906
    Y2       -1.62582   0.00000   0.00000   0.00000   0.00000  -1.62581
    Z2        0.94095   0.00000   0.00000   0.00001   0.00001   0.94096
    X3       -1.03204   0.00000   0.00000   0.00000   0.00000  -1.03204
    Y3        1.77902   0.00000   0.00000  -0.00001  -0.00001   1.77902
    Z3        0.91119   0.00000   0.00000   0.00000   0.00000   0.91120
    X4       -2.49039   0.00000   0.00000   0.00000   0.00000  -2.49039
    Y4       -0.78676   0.00000   0.00000   0.00000   0.00000  -0.78676
    Z4       -0.76261   0.00000   0.00000  -0.00001  -0.00001  -0.76261
    X5        0.14510   0.00000   0.00000   0.00000   0.00000   0.14510
    Y5        0.92080   0.00000   0.00000   0.00001   0.00001   0.92081
    Z5       -2.04737   0.00000   0.00000   0.00000   0.00000  -2.04737
    X6        2.88863   0.00000   0.00000   0.00001   0.00001   2.88863
    Y6       -0.40043   0.00000   0.00000  -0.00001   0.00000  -0.40044
    Z6        1.26542   0.00000   0.00000  -0.00001  -0.00001   1.26541
         Item               Value     Threshold  Converged?
 Maximum Force            0.000005     0.000450     YES
 RMS     Force            0.000002     0.000300     YES
 Maximum Displacement     0.000010     0.001800     YES
 RMS     Displacement     0.000005     0.001200     YES
 Predicted change in Energy=-2.766380D-11
 Optimization completed.
    -- Stationary point found.
 GradGradGradGradGradGradGradGradGradGradGradGradGradGradGradGradGradGrad

 1\1\GINC-ANT01\Freq\RB3LYP\3-21G\C2H4\GNOVIKOV\14-Oct-2017\0\\# B3lyp/
 3-21g nosym freq\\\0,1\C,-0.3653193737,0.0598946067,-0.1627668334\C,0.
 6239302823,-0.8603454158,0.4979303637\H,-0.5461314817,0.9414177597,0.4
 821827064\H,-1.3178570149,-0.4163351485,-0.4035539458\H,0.076781235,0.
 4872679625,-1.0834230492\H,1.5285962489,-0.2118998516,0.6696291081\\Ve
 rsion=AM64L-G09RevD.01\HF=-78.030123\RMSD=7.714e-09\RMSF=1.945e-06\Zer
 oPoint=0.0463853\Thermal=0.0493996\Dipole=-0.0792675,0.9221225,-0.2991
 578\DipoleDeriv=0.0533848,0.1533541,-0.1021402,0.3007088,-0.3559765,0.
 2803669,-0.1448721,0.2219456,0.0763853,0.1612342,-0.0265798,0.2614863,
 0.1277538,0.2402997,-0.1573187,0.2166715,-0.2188432,-0.327048,0.074994
 7,0.0339345,-0.094934,-0.0069967,0.0409038,-0.0691795,0.0120781,-0.104
 9557,0.0336319,-0.1210834,-0.0618449,-0.0558182,-0.0506497,0.0414924,-
 0.0135121,-0.0590856,-0.0179572,0.0460315,0.0002975,0.0108997,0.093749
 5,-0.0411953,0.1222737,0.0159846,0.0136587,0.0886621,0.0268154,-0.1688
 278,-0.1097636,-0.1023435,-0.329621,-0.0889931,-0.0563413,-0.0384506,0
 .0311484,0.1441839\Polar=23.789183,-1.0782905,19.5405262,3.0084654,-1.
 1618131,18.5483845\PG=C01 [X(C2H4)]\NImag=1\\0.53442581,0.08180405,0.4
 4801224,0.02643975,0.02090541,0.41296003,-0.11623523,0.04695837,-0.069
 59627,0.30273957,0.01210009,-0.08388253,0.03629761,0.05691313,0.226861
 87,-0.05951020,0.05015896,-0.01391855,0.10611998,-0.04479690,0.0497085
 5,-0.05861577,0.03614101,0.02782920,-0.00042148,0.01405211,0.00269716,
 0.05538446,0.03094179,-0.19216446,-0.12817944,0.00454326,-0.02057962,0
 .00347984,-0.03466462,0.21383326,0.01218918,-0.10786506,-0.10500501,0.
 00243355,0.00727856,-0.00695359,-0.02555488,0.12989135,0.13040563,-0.2
 4475553,-0.10683455,-0.04559758,-0.02111439,-0.00369765,-0.00463469,0.
 00575653,0.00308082,0.00184991,0.27267356,-0.10701744,-0.10727988,-0.0
 2660209,0.02397174,0.01139662,0.00427284,-0.02338115,-0.01304581,-0.00
 430464,0.11156303,0.11659210,-0.04551946,-0.02649744,-0.06262597,-0.01
 266829,-0.00673890,-0.00984127,-0.01715095,-0.00909906,-0.00520517,0.0
 5529302,0.02572012,0.06682338,-0.08212299,-0.03995676,0.05984879,0.002
 50493,0.01099593,-0.00281698,-0.00146903,-0.00517663,0.00944647,-0.011
 08283,-0.01011939,0.02527711,0.08870479,-0.04889803,-0.06608448,0.0920
 7486,0.00289922,-0.01869708,0.00626688,0.00769260,0.01024180,-0.026217
 32,-0.00589760,-0.00720153,0.01343631,0.04591869,0.07869875,0.07961114
 ,0.07736204,-0.20801752,0.00251599,0.00948288,-0.01171090,0.00805917,0
 .00713052,-0.01812757,-0.00260595,-0.00353555,0.00581298,-0.08748220,-
 0.08848286,0.23255676,-0.03269629,-0.01811212,0.00107611,-0.16747340,-
 0.09036361,-0.04185526,-0.00063472,0.00127538,-0.00036424,-0.00147733,
 0.00498321,-0.00523144,0.00346513,-0.00171488,-0.00009814,0.19881662,0
 .03106954,0.00139912,0.00550365,-0.13528571,-0.11509925,-0.01938162,0.
 00016005,0.00171483,0.00121711,0.00178595,-0.00046151,0.00317897,-0.00
 166185,0.00304253,-0.00195703,0.10393202,0.10940428,-0.01321042,-0.014
 06392,-0.02339297,-0.02880495,-0.00152326,-0.00728424,0.00412031,-0.00
 322320,0.00488572,-0.00430472,0.00444932,0.00503605,-0.00427318,0.0029
 2212,-0.00051375,0.04647296,0.01143893,0.02126921\\-0.00000040,-0.0000
 0039,0.00000077,0.00000110,0.00000128,0.00000082,0.00000142,0.00000146
 ,-0.00000125,-0.00000111,-0.00000088,0.00000454,-0.00000268,-0.0000030
 6,-0.00000157,0.00000167,0.00000158,-0.00000331\\\@


 THE WHOLE OF SCIENCE IS NOTHING MORE THAN A REFINEMENT OF EVERYDAY THINKING.
                                                              -- A. EINSTEIN
 Job cpu time:       0 days  0 hours  0 minutes 13.8 seconds.
 File lengths (MBytes):  RWF=     18 Int=      0 D2E=      0 Chk=      1 Scr=      5
 Normal termination of Gaussian 09 at Sat Oct 14 16:16:15 2017.
