                                                                        
SP        RB3LYP                                                      3-21G               
Number of atoms                            I                6
Info1-9                                    I   N=           9
          19          19           0           0           0         110
           1          18        -502
Charge                                     I                0
Multiplicity                               I                1
Number of electrons                        I               16
Number of alpha electrons                  I                8
Number of beta electrons                   I                8
Number of basis functions                  I               26
Number of independent functions            I               26
Number of point charges in /Mol/           I                0
Number of translation vectors              I                0
Atomic numbers                             I   N=           6
           6           6           1           1           1           1
Nuclear charges                            R   N=           6
  6.00000000E+00  6.00000000E+00  1.00000000E+00  1.00000000E+00  1.00000000E+00
  1.00000000E+00
Current cartesian coordinates              R   N=          18
 -1.59079299E+00 -3.62653230E-01 -3.57832360E-06  8.21627501E-01 -7.95927114E-01
 -2.71187496E-06 -2.38099709E+00  1.53472213E+00  2.34548878E-06 -2.98077862E+00
 -1.89878232E+00 -1.00316787E-05  3.87698400E+00  3.75718885E+00  1.69804007E-05
  2.25395701E+00 -2.23454848E+00 -6.12258000E-06
Force Field                                I                0
Int Atom Types                             I   N=           6
           0           0           0           0           0           0
MM charges                                 R   N=           6
  0.00000000E+00  0.00000000E+00  0.00000000E+00  0.00000000E+00  0.00000000E+00
  0.00000000E+00
Integer atomic weights                     I   N=           6
          12          12           1           1           1           1
Real atomic weights                        R   N=           6
  1.20000000E+01  1.20000000E+01  1.00782504E+00  1.00782504E+00  1.00782504E+00
  1.00782504E+00
Atom fragment info                         I   N=           6
           0           0           0           0           0           0
Atom residue num                           I   N=           6
           0           0           0           0           0           0
Nuclear spins                              I   N=           6
           0           0           1           1           1           1
Nuclear ZEff                               R   N=           6
 -3.60000000E+00 -3.60000000E+00 -1.00000000E+00 -1.00000000E+00 -1.00000000E+00
 -1.00000000E+00
Nuclear ZNuc                               R   N=           6
  6.00000000E+00  6.00000000E+00  1.00000000E+00  1.00000000E+00  1.00000000E+00
  1.00000000E+00
Nuclear QMom                               R   N=           6
  0.00000000E+00  0.00000000E+00  0.00000000E+00  0.00000000E+00  0.00000000E+00
  0.00000000E+00
Nuclear GFac                               R   N=           6
  0.00000000E+00  0.00000000E+00  2.79284600E+00  2.79284600E+00  2.79284600E+00
  2.79284600E+00
MicOpt                                     I   N=           6
          -1          -1          -1          -1          -1          -1
Number of contracted shells                I               14
Number of primitive shells                 I               24
Pure/Cartesian d shells                    I                1
Pure/Cartesian f shells                    I                0
Highest angular momentum                   I                1
Largest degree of contraction              I                3
Shell types                                I   N=          14
           0          -1          -1           0          -1          -1
           0           0           0           0           0           0
           0           0
Number of primitives per shell             I   N=          14
           3           2           1           3           2           1
           2           1           2           1           2           1
           2           1
Shell to atom map                          I   N=          14
           1           1           1           2           2           2
           3           3           4           4           5           5
           6           6
Primitive exponents                        R   N=          24
  1.72256000E+02  2.59109000E+01  5.53335000E+00  3.66498000E+00  7.70545000E-01
  1.95857000E-01  1.72256000E+02  2.59109000E+01  5.53335000E+00  3.66498000E+00
  7.70545000E-01  1.95857000E-01  5.44717800E+00  8.24547240E-01  1.83191580E-01
  5.44717800E+00  8.24547240E-01  1.83191580E-01  5.44717800E+00  8.24547240E-01
  1.83191580E-01  5.44717800E+00  8.24547240E-01  1.83191580E-01
Contraction coefficients                   R   N=          24
  6.17669074E-02  3.58794043E-01  7.00713084E-01 -3.95895162E-01  1.21583436E+00
  1.00000000E+00  6.17669074E-02  3.58794043E-01  7.00713084E-01 -3.95895162E-01
  1.21583436E+00  1.00000000E+00  1.56284979E-01  9.04690877E-01  1.00000000E+00
  1.56284979E-01  9.04690877E-01  1.00000000E+00  1.56284979E-01  9.04690877E-01
  1.00000000E+00  1.56284979E-01  9.04690877E-01  1.00000000E+00
P(S=P) Contraction coefficients            R   N=          24
  0.00000000E+00  0.00000000E+00  0.00000000E+00  2.36459947E-01  8.60618806E-01
  1.00000000E+00  0.00000000E+00  0.00000000E+00  0.00000000E+00  2.36459947E-01
  8.60618806E-01  1.00000000E+00  0.00000000E+00  0.00000000E+00  0.00000000E+00
  0.00000000E+00  0.00000000E+00  0.00000000E+00  0.00000000E+00  0.00000000E+00
  0.00000000E+00  0.00000000E+00  0.00000000E+00  0.00000000E+00
Coordinates of each shell                  R   N=          42
 -1.59079299E+00 -3.62653230E-01 -3.57832360E-06 -1.59079299E+00 -3.62653230E-01
 -3.57832360E-06 -1.59079299E+00 -3.62653230E-01 -3.57832360E-06  8.21627501E-01
 -7.95927114E-01 -2.71187496E-06  8.21627501E-01 -7.95927114E-01 -2.71187496E-06
  8.21627501E-01 -7.95927114E-01 -2.71187496E-06 -2.38099709E+00  1.53472213E+00
  2.34548878E-06 -2.38099709E+00  1.53472213E+00  2.34548878E-06 -2.98077862E+00
 -1.89878232E+00 -1.00316787E-05 -2.98077862E+00 -1.89878232E+00 -1.00316787E-05
  3.87698400E+00  3.75718885E+00  1.69804007E-05  3.87698400E+00  3.75718885E+00
  1.69804007E-05  2.25395701E+00 -2.23454848E+00 -6.12258000E-06  2.25395701E+00
 -2.23454848E+00 -6.12258000E-06
Constraint Structure                       R   N=          18
 -1.59079299E+00 -3.62653230E-01 -3.57832360E-06  8.21627501E-01 -7.95927114E-01
 -2.71187496E-06 -2.38099709E+00  1.53472213E+00  2.34548878E-06 -2.98077862E+00
 -1.89878232E+00 -1.00316787E-05  3.87698400E+00  3.75718885E+00  1.69804007E-05
  2.25395701E+00 -2.23454848E+00 -6.12258000E-06
Num ILSW                                   I              100
ILSW                                       I   N=         100
           0           1           0           0           2           0
           0           0           0           0         402          -1
           0           0           0           0           0           0
           0           0           1           0           0           0
           1           1           0           0           0           0
           0           0      100000           0          -1           0
           0           0           0           0           0           0
           0           0           0           1           0           0
           0           0           1           0           0           0
           0           0           4          41           0           0
           0           0           5           0           0           0
           0           0           0           0           0           0
           0           0           0           0           0           0
           0           0           0           0           0           0
           0           0           0           0           0           0
           0           0           0           0           0           0
           0           0           0           0
Num RLSW                                   I               41
RLSW                                       R   N=          41
  8.00000000E-01  7.20000000E-01  1.00000000E+00  8.10000000E-01  2.00000000E-01
  0.00000000E+00  0.00000000E+00  1.00000000E+00  0.00000000E+00  0.00000000E+00
  0.00000000E+00  0.00000000E+00  1.00000000E+00  0.00000000E+00  0.00000000E+00
  0.00000000E+00  0.00000000E+00  1.00000000E+00  0.00000000E+00  0.00000000E+00
  0.00000000E+00  0.00000000E+00  1.00000000E+00  0.00000000E+00  0.00000000E+00
  0.00000000E+00  0.00000000E+00  1.00000000E+00  0.00000000E+00  0.00000000E+00
  0.00000000E+00  0.00000000E+00  1.00000000E+00  0.00000000E+00  0.00000000E+00
  0.00000000E+00  0.00000000E+00  0.00000000E+00  1.00000000E+00  1.00000000E+00
  0.00000000E+00
MxBond                                     I                3
NBond                                      I   N=           6
           3           2           1           1           0           1
IBond                                      I   N=          18
           2           3           4           1           6           0
           1           0           0           1           0           0
           0           0           0           2           0           0
RBond                                      R   N=          18
  2.00000000E+00  1.00000000E+00  1.00000000E+00  2.00000000E+00  1.00000000E+00
  0.00000000E+00  1.00000000E+00  0.00000000E+00  0.00000000E+00  1.00000000E+00
  0.00000000E+00  0.00000000E+00  0.00000000E+00  0.00000000E+00  0.00000000E+00
  1.00000000E+00  0.00000000E+00  0.00000000E+00
Virial Ratio                               R      2.011331539275825E+00
SCF Energy                                 R     -7.794081471639154E+01
Total Energy                               R     -7.794081471639154E+01
RMS Density                                R      9.645658152365652E-09
External E-field                           R   N=          35
  0.00000000E+00  0.00000000E+00  0.00000000E+00  0.00000000E+00  0.00000000E+00
  0.00000000E+00  0.00000000E+00  0.00000000E+00  0.00000000E+00  0.00000000E+00
  0.00000000E+00  0.00000000E+00  0.00000000E+00  0.00000000E+00  0.00000000E+00
  0.00000000E+00  0.00000000E+00  0.00000000E+00  0.00000000E+00  0.00000000E+00
  0.00000000E+00  0.00000000E+00  0.00000000E+00  0.00000000E+00  0.00000000E+00
  0.00000000E+00  0.00000000E+00  0.00000000E+00  0.00000000E+00  0.00000000E+00
  0.00000000E+00  0.00000000E+00  0.00000000E+00  0.00000000E+00  0.00000000E+00
IOpCl                                      I                0
IROHF                                      I                0
Alpha Orbital Energies                     R   N=          26
 -1.01890518E+01 -1.01554997E+01 -7.91512304E-01 -5.92955686E-01 -4.88491619E-01
 -4.54341972E-01 -3.07536354E-01 -2.10512969E-01 -1.25557758E-01  2.51687445E-03
  1.27783934E-01  1.40150014E-01  2.17212057E-01  3.76299925E-01  6.47015024E-01
  6.97429069E-01  7.40379585E-01  7.48222312E-01  7.75672737E-01  8.40339066E-01
  9.99298096E-01  1.00197322E+00  1.06175465E+00  1.18814764E+00  1.31566846E+00
  1.63504839E+00
Alpha MO coefficients                      R   N=         676
 -1.16308406E-02 -6.32442611E-03 -4.11764338E-03  1.01555797E-03 -4.84034296E-10
  2.86039070E-02  1.66095420E-02 -5.93912033E-03 -4.21059163E-09  9.85080419E-01
  1.02688953E-01 -1.17820522E-03 -9.21343911E-04 -4.17822779E-09 -6.76163890E-02
  1.28824265E-02  2.53457870E-03  2.07407003E-08 -9.32212412E-04  3.58749028E-03
 -1.57444750E-03  1.49380639E-03 -7.79951804E-04  1.46055505E-03 -3.30009061E-03
  1.26132105E-02  9.85357673E-01  1.06343141E-01  5.07473200E-04 -3.34346753E-05
  7.17847253E-10 -8.01042217E-02 -9.64084248E-03  8.18836758E-04 -8.14112532E-09
  1.14121509E-02 -3.72842813E-03  3.76578365E-03 -9.49682261E-04  4.46536380E-10
  2.87751145E-02 -1.74821268E-02  4.61751393E-03 -9.72503435E-10 -1.77537355E-03
  1.40124865E-02 -1.83496529E-03  1.31461025E-02  5.55394497E-05 -9.84567111E-05
 -6.83181291E-04  3.37371613E-03 -1.81371371E-01  1.98480475E-01  1.17733878E-01
 -2.85422839E-02  2.35851622E-08  4.20397500E-01  2.27238235E-02  1.28759326E-03
  3.37076776E-08 -1.59194068E-01  1.85754969E-01 -1.44509570E-01  4.75870907E-03
 -1.22112523E-07  3.10041383E-01 -1.67286356E-02 -2.60319750E-02 -1.04862719E-07
  7.94824673E-02 -3.85261489E-03  8.44950683E-02  6.02713075E-03  1.72672705E-03
  3.36799196E-03  6.72010018E-02 -5.99840400E-03  1.08969305E-01 -1.11097082E-01
  1.54545544E-01 -6.16060056E-02 -7.42385909E-08 -3.71949437E-01  6.68650473E-02
 -9.96302100E-03  1.98092694E-08 -1.39421109E-01  1.53191808E-01  1.29589606E-01
 -1.17848744E-01 -2.72979097E-07  4.36996033E-01  4.07535487E-02 -7.47392782E-02
 -2.11874304E-07 -1.40685737E-01 -7.62013282E-02 -1.13282501E-01 -5.00071262E-02
  3.40266399E-03  8.22855051E-03  2.10753234E-01  1.10457493E-01  1.27430191E-02
 -5.11441000E-03  3.43693675E-01  1.07460467E-01  6.81391561E-07 -7.18031720E-02
  1.98168184E-01  7.61137846E-02  4.39402201E-07 -2.31102642E-02  3.73205173E-02
 -2.73404596E-01  1.96446128E-01  3.89807076E-07  1.66906426E-02 -1.16425285E-01
  1.05214730E-01  2.38505116E-07 -3.42972593E-02 -3.44229543E-02 -2.02537576E-01
 -1.63634674E-01  1.94724846E-03  3.81070600E-03 -1.73141890E-01 -1.45868914E-01
  3.10697198E-03 -7.54957826E-03 -8.78345099E-02  3.70790884E-01  1.19970843E-06
  8.90301604E-03 -4.70971286E-02  2.80515052E-01  9.26018309E-07 -1.78593309E-02
  1.42396673E-02  2.00117103E-01  4.47336967E-02  3.59483365E-07  9.17324049E-02
  1.05051946E-01  2.27897850E-02  1.86623539E-07  2.41483258E-01  1.83832591E-01
 -1.45878727E-01 -1.08916915E-01  6.74279483E-03  2.07949390E-02  1.01032672E-01
  8.52372631E-02  7.00851454E-09 -6.88237360E-09 -3.16201716E-07 -1.23132413E-06
  3.56617370E-01 -2.36947484E-08 -3.15648498E-07 -1.21828327E-06  3.53367655E-01
  1.67407923E-09  4.84542127E-10 -3.79439027E-07 -1.23890621E-06  3.62652493E-01
 -2.01399811E-08 -3.31956450E-07 -1.12515252E-06  3.28233466E-01 -1.50492470E-09
 -7.05015508E-09  7.23807254E-11 -3.68578769E-09  5.39921540E-09  1.34553487E-08
 -3.04175800E-09 -8.01300534E-09  1.40810400E-02 -2.24264657E-02 -5.59377348E-02
 -4.96334068E-02 -2.29687197E-07 -1.79598164E-02  7.75391408E-03 -4.91620817E-02
 -1.69582459E-07 -3.19809305E-02  1.92434660E-02  1.31112711E-01  2.51312530E-01
  9.84142984E-07  1.66665513E-01  2.00368771E-01  3.09012188E-01  1.25835825E-06
 -8.11043360E-02 -9.11892808E-02  9.37516897E-02  1.72003706E-01  2.30123657E-01
  5.59797175E-01 -6.55444702E-02 -8.57124277E-02 -1.47503461E-02  2.31517626E-02
  5.47452201E-02  1.93420182E-02  9.72261832E-08  8.23556686E-03  1.38764343E-02
 -5.03794977E-02 -1.89985037E-07  5.33383519E-02 -5.58612687E-02 -1.85598177E-01
 -3.29299003E-01 -1.31006804E-06 -2.72227153E-01 -2.33236565E-01 -3.32399389E-01
 -1.35756520E-06  8.76489891E-02  2.05449343E-01 -1.04967457E-01 -2.38626904E-01
  2.21655433E-01  5.17108931E-01  5.29661926E-02  1.31684078E-01  1.77583088E-08
 -1.56803542E-08 -3.39387043E-07 -1.26571022E-06  3.66637580E-01 -1.12366233E-07
 -6.00081643E-07 -2.35727043E-06  6.80052249E-01 -9.30863434E-09  7.39322991E-09
  3.77700659E-07  1.30678682E-06 -3.88561153E-01  5.13753433E-08  6.87770638E-07
  2.25098301E-06 -6.71518430E-01  2.80495743E-08  9.21343074E-08  1.19366174E-08
  3.85011425E-08  1.12665208E-08  2.57019950E-08 -2.04267742E-08 -7.16341424E-08
 -9.50458322E-02  8.14009890E-02  4.96537958E-02  1.33919178E-01  5.45502975E-07
  9.24079648E-01 -2.15695913E-02  3.86247952E-01  1.42427739E-06  1.14077786E-01
 -6.43139571E-02 -1.07917327E-01  1.66866249E-01  4.26128943E-07 -1.32149200E+00
 -3.22198316E-01  4.32239419E-01  1.05206064E-06 -9.28716488E-02 -1.03545012E+00
  2.10409484E-02 -2.90674152E-02  1.05303390E-02  9.13902192E-03  1.37614318E-01
  1.45224976E+00 -1.25797400E-01  6.61388992E-02 -2.41995950E-01 -6.80339670E-02
 -4.29281251E-07  1.71186452E+00 -7.04479130E-01 -1.63711419E-01 -1.11708043E-06
 -3.24752039E-02  3.05904415E-02  1.10414130E-01 -6.90445659E-02 -1.33746668E-07
  4.96493549E-01  3.44464201E-01 -1.68832281E-01 -2.72716632E-07 -4.70777179E-02
 -8.51306800E-01 -8.62494893E-02 -1.51448612E+00  1.21368068E-02 -2.46556318E-03
 -2.80403848E-02 -6.81417384E-01 -7.01107219E-03  4.82640647E-03  8.54005271E-04
 -3.87229906E-01 -1.33079661E-06  4.26289057E-02  3.96719533E-02 -1.49352991E+00
 -5.09160772E-06  5.77479940E-02 -3.64401463E-02 -3.92140617E-02  1.63297789E-01
  5.14890739E-07 -9.40554506E-01 -1.70907168E-02  8.02454887E-01  2.70785841E-06
  1.31983818E-02  1.51519472E+00 -1.36580073E-03 -1.23580629E+00 -4.58391232E-02
 -4.45564314E-02 -1.82843463E-02  1.02696840E+00 -1.05331965E-01  2.52839445E-03
  1.26170350E-01  4.35361523E-03  1.22386504E-07  2.96471082E+00  2.78104135E+00
 -2.97741983E-01  1.63281690E-06  1.03154149E-01 -2.44681724E-02  2.62668463E-01
 -1.53407569E-01 -2.56954052E-07 -2.81995683E+00  2.63486585E+00 -7.82231814E-01
 -6.51777847E-08  9.35451139E-02  2.42722068E-01  6.29531440E-02  5.18068599E-01
 -1.96027329E-02 -8.40147245E-03  1.00408317E-01 -1.17740519E+00  2.05861111E-03
 -1.57087290E-01 -6.56374735E-01  2.58018734E-01  1.95397506E-07 -3.89919192E-01
  8.71410131E-01 -4.42563766E-01 -6.64259886E-07 -3.72664362E-02 -2.43144085E-01
  4.07290857E-01  3.11888733E-01  1.41107224E-06 -2.15267727E-01 -7.69568596E-01
 -1.12404348E-01 -1.07933656E-06  1.81843783E-01  2.52023944E-01 -6.67727274E-02
  1.14021881E-01  5.35058575E-02 -5.11332654E-03 -4.26641562E-01  6.83453037E-01
  5.57317149E-09 -2.03493366E-08 -7.31592187E-07 -2.54398628E-06  7.47284275E-01
 -1.99824757E-08  6.47943503E-07  1.95960462E-06 -5.88420954E-01 -4.51242201E-10
 -1.62558658E-08 -6.94673454E-07 -2.44744284E-06  7.41801438E-01 -3.73909662E-08
  5.89604147E-07  1.99992187E-06 -6.07647914E-01  5.26867197E-08  5.14105755E-08
  2.31284068E-09  2.33958642E-08  7.41396393E-08 -3.67890104E-08 -2.74173659E-08
  2.27008266E-08 -1.02489351E-02  9.32038097E-02  4.96440343E-01  2.17937791E-01
  1.06956654E-06  8.83280396E-01 -2.50702962E-01 -5.70564131E-01 -2.03144869E-06
  1.04393944E-02  1.37827771E-01 -3.10799087E-02  7.16073444E-01  2.45446442E-06
 -1.21454954E-01  1.06114453E+00 -9.38086973E-01 -2.21689565E-06  3.28399240E-01
 -2.68733712E-02 -3.05733874E-01 -1.98728715E-01  2.31473216E-01 -1.42560077E-01
 -1.32840740E-01 -6.89760345E-01  2.83953074E-02 -3.53674001E-02 -1.38985674E-01
  3.63335175E-01  1.06434396E-06  6.76662911E-01  2.90893145E-01 -7.49809720E-01
 -2.24435665E-06 -6.61496972E-03 -1.79328688E-01 -6.28362940E-01 -3.61308942E-01
 -1.75763667E-06 -2.02824158E-01  1.21625941E+00  2.17773725E-01  1.85605826E-06
  2.83426472E-01  4.78166411E-02 -1.13512755E-01 -8.25727115E-02 -3.56770899E-01
  2.03264688E-01 -6.22864584E-01  1.23191027E-01 -1.35695155E-09 -9.80812276E-09
 -6.56044352E-07 -2.56797537E-06  7.69492568E-01  1.65849339E-07  9.97273299E-07
  3.31802101E-06 -1.02508027E+00  4.33942535E-09 -1.11186734E-08  7.37335036E-07
  2.64941455E-06 -7.61173889E-01 -4.14289839E-08 -7.70946751E-07 -3.60204827E-06
  1.02784160E+00  5.38187847E-08  6.88004597E-08 -9.42350244E-08  8.90171802E-09
 -7.28181171E-08  3.95521120E-08 -6.42030302E-08 -1.06031407E-07  8.05915305E-02
  1.90155810E-01 -2.28359453E-01 -1.20112961E-01 -6.22765442E-07 -2.93465590E-01
  4.45507652E-01  3.42756544E-01  1.49542007E-06 -4.55878841E-02  3.37604824E-01
 -3.58608223E-01  1.77660425E-01  1.85231695E-07 -1.95433389E-01  2.22669466E-01
 -2.85231823E-01 -6.29064016E-07  6.73931636E-01 -4.24860155E-01  8.72395585E-01
 -2.49576706E-01  2.07638302E-01 -1.50876543E-01  1.73186839E-01 -2.53056244E-01
  1.63479601E-03  4.58622297E-02 -2.88379444E-01 -7.29586856E-01 -2.78413629E-06
  8.99242992E-02  4.90938440E-01  1.34125471E+00  5.08621015E-06  3.63045033E-03
 -7.27752740E-02 -1.67432452E-01  3.06962509E-01  9.12521185E-07  1.37258572E-01
  3.13148335E-01 -7.24758680E-01 -2.20624864E-06  4.55439683E-01 -1.02346267E+00
 -5.71832205E-01  1.26706351E+00 -6.36576017E-01  5.70953230E-01  2.34467309E-01
 -6.25787613E-01 -8.57106921E-03 -5.56584026E-02 -2.30108908E-01 -4.98618483E-01
 -1.91118115E-06  6.18173264E-01  6.32905398E-01  8.83939049E-01  3.59623351E-06
 -2.00895535E-03 -7.63123800E-02 -2.52026946E-01 -1.77320536E-01 -9.13592313E-07
 -3.31665232E-01  8.32459985E-01 -2.11955397E-01  1.89921637E-07  6.52946224E-02
 -5.26589452E-01 -4.50087090E-01  9.60813068E-01  9.65770914E-01 -8.52623827E-01
 -3.23422001E-01 -8.90820391E-02 -1.78171244E-03  6.95132577E-02 -6.04589994E-01
  3.56818727E-01  6.70266343E-07  4.67652465E-01  1.09317015E+00 -4.34552995E-01
 -4.88533670E-07  6.96551336E-03 -9.16234756E-02 -6.97975403E-01  4.00924293E-01
  6.63118794E-07 -2.98645008E-01  1.35500465E+00 -6.99532580E-01 -1.01851987E-06
 -6.18328006E-01  1.01683142E+00 -1.24564998E-01  2.39253421E-01  1.03028811E-01
 -9.63963144E-02  6.22306380E-01 -1.33014175E+00  1.87257340E-02 -1.04649111E-02
 -6.38311568E-02  3.92518303E-01  1.27042325E-06 -1.32173841E+00 -8.55551473E-01
 -1.99291307E+00 -7.63443256E-06  8.70153772E-03  1.52230163E-01  9.51561616E-02
 -3.78655920E-01 -1.19431073E-06  2.91224582E-02 -1.49579089E+00  2.03299174E+00
  5.43052550E-06  7.00251317E-01  3.94054050E-01 -5.25602721E-01 -4.89663095E-01
  2.18215693E-01 -2.46968036E-01  7.44942757E-01  9.50778068E-01  3.33483867E-02
 -1.02549103E+00  2.47834296E-01 -6.56901727E-02 -1.68470533E-08  1.23552107E+00
 -6.69936689E-01  3.03343132E-01  4.62449711E-07  4.07664020E-02 -1.25201154E+00
 -9.26558245E-02  1.23821034E-01  3.13572979E-07  1.85385134E+00  1.65063527E-03
 -3.27433859E-01 -1.09345648E-06  1.96533075E-01 -8.15298532E-01  2.68274509E-01
 -7.26279766E-01  9.48110581E-02 -1.00208571E-01  2.79998706E-01 -8.51504883E-01
  3.35084383E-03 -1.57016603E+00 -1.03154577E-01  4.15187157E-03 -9.76119245E-08
  4.33939486E+00  1.28269469E+00 -1.64788256E-01  7.54035860E-07 -1.68554955E-02
  1.15425053E+00 -1.36784268E-01  3.75375270E-02 -1.03515212E-10 -3.45784865E+00
  1.58564402E+00 -3.27255845E-01  3.96900453E-07 -1.33956141E-01 -3.99977096E-01
 -1.23663554E-01 -3.42819756E-01 -7.70648867E-02  9.13260899E-02 -6.67671460E-02
  9.43266663E-02
Total SCF Density                          R   N=         351
  2.03241044E+00  1.12700647E-01  1.27344044E-01 -1.29153169E-03  1.28762678E-02
  3.33464154E-01  4.82700647E-04 -2.13325355E-03 -1.14877971E-02  3.12216203E-01
  4.22694326E-11  6.32554794E-09  4.04104230E-08  1.88504086E-07  2.54351897E-01
 -3.94366721E-01  2.33533094E-01 -6.52043762E-02  1.48470063E-02 -1.02261472E-08
  6.55745652E-01 -8.07991935E-03 -9.76080484E-03  1.69495885E-01 -2.60696318E-03
 -8.05247766E-08 -5.77153553E-02  9.38100423E-02  1.41189319E-03  1.65096356E-04
  5.81532650E-03  2.30405402E-01 -6.79920851E-08  3.85345503E-03  1.49443845E-03
  1.74071553E-01 -6.72568884E-09 -8.43352633E-09 -5.10456626E-08 -7.66042382E-08
  2.52034088E-01 -4.25982557E-08 -1.34586197E-07 -2.58187711E-07  2.49737399E-01
  2.53361089E-02 -4.03077106E-02 -9.78502196E-02  1.32295405E-02 -4.62066491E-08
  2.85411233E-02 -1.34951665E-03 -1.97073198E-02 -6.60927396E-08  2.03434097E+00
 -4.21496725E-02  3.61473824E-02  1.11239382E-01 -1.25993898E-02  6.24441769E-08
  4.28974423E-02  4.61602123E-02  7.97797322E-03  7.07734721E-08  9.69056888E-02
  1.40994921E-01  8.60789939E-02 -9.14486591E-02 -2.31716359E-01  6.89073088E-02
 -2.49336852E-07 -1.80458793E-01 -1.14526132E-01  5.48262698E-02 -1.86936156E-07
  4.74255405E-03 -2.39145414E-02  3.39359044E-01 -1.68980103E-02  1.39270375E-02
  6.37617007E-02  6.46940091E-02 -6.06307392E-07  5.53266515E-02  6.19864526E-02
  3.26612750E-02 -7.09653958E-07  2.75712831E-03 -8.91198228E-03 -5.55383425E-02
  2.35325790E-01  3.07472067E-08 -4.62203987E-08 -2.47739883E-07 -5.99817729E-07
  2.58656357E-01 -2.02709304E-09 -1.35248712E-07 -7.14196303E-07  2.56299322E-01
  1.41849340E-08 -5.23022486E-08 -1.21858703E-07 -1.55430564E-07  2.63033661E-01
  4.67425232E-02  2.39204510E-02  1.85374985E-01 -1.66111061E-02  1.01771184E-07
 -7.96278703E-02  7.02882479E-02  3.05592706E-02  1.52114433E-07 -3.67833076E-01
  2.45243124E-01  9.53202311E-02 -1.44318518E-03  7.86918666E-08  6.57923959E-01
 -1.64736305E-02 -2.89594014E-02 -1.12366320E-01  2.89533627E-02 -2.42283796E-07
 -2.94513172E-02 -4.74768541E-02  2.04762876E-02 -2.09655412E-07  7.75678796E-03
  1.10607778E-02  1.73484928E-01  5.46112408E-02  1.20087980E-07  1.04672951E-01
  1.34301367E-01  1.37207296E-02 -8.05745525E-03  4.50180925E-03  1.95383218E-02
 -7.36509781E-07  7.31283214E-03  3.31630450E-02 -1.81350456E-04 -7.70132966E-07
  8.78556165E-03 -1.16886081E-02  2.08013981E-02  2.16048927E-01 -6.22972611E-08
  2.91561421E-02  9.88047298E-02  2.26738830E-01  3.67406704E-08 -6.12349458E-08
 -3.07546006E-07 -7.11446735E-07  2.34107511E-01 -2.08950683E-08 -1.43141008E-07
 -7.78777408E-07  2.31974180E-01  3.62291318E-08 -2.77398072E-08  4.98404323E-10
 -2.15111854E-08  2.38069369E-01  1.95368260E-07  2.56834785E-07  1.34991768E-07
  2.15474416E-01 -6.46272179E-02  6.27875735E-02 -8.16863179E-02  1.92554527E-01
  5.93499352E-07  1.83853923E-01 -5.27957003E-02  1.41249062E-01  4.43360748E-07
  1.01930812E-02 -1.25576532E-02  3.46903507E-02  1.28551085E-03  4.35548695E-08
 -5.75244158E-02  1.21330603E-02 -2.94646988E-02 -8.84211038E-08  1.84364679E-01
  1.00184086E-02  2.00035345E-02 -7.02293907E-02  1.47595947E-01  4.42190674E-07
  6.28993058E-02 -4.28897050E-02  1.08350409E-01  3.32622181E-07  3.07199614E-02
 -2.49893518E-02  4.99474930E-02 -2.50209380E-02 -3.67410203E-08 -6.64855085E-02
  3.61682313E-03 -4.34831535E-02 -1.48711128E-07  1.26709910E-01  9.86511020E-02
 -6.23462937E-02  5.84109243E-02 -1.39191553E-01 -1.51885676E-01 -6.48249753E-07
  1.78638296E-01 -7.64042819E-02 -1.19401658E-01 -4.78658475E-07  1.01173741E-02
 -1.92907470E-02  2.31565568E-02 -1.79939236E-02 -3.69772631E-08 -4.87809882E-02
  4.20444138E-02  2.11810979E-02  1.15153431E-07 -2.64532417E-02 -4.02381648E-02
  1.82139280E-01  1.27844749E-02  1.18844006E-02 -1.26626594E-01 -1.27193998E-01
 -5.58251937E-07  5.56284564E-02 -5.85450156E-02 -1.01911747E-01 -4.08265001E-07
  1.57201909E-02 -2.15693067E-02  7.63811407E-02  2.42342594E-02  1.55828697E-07
 -7.52454684E-03  7.94481589E-02  7.41947149E-02  3.31719438E-07 -5.43000560E-02
 -5.21952522E-02  1.42608380E-01  1.41873133E-01  6.81509743E-03 -1.04923801E-02
 -2.41263773E-02 -1.79442104E-02 -8.34524878E-08 -9.55846373E-03  4.21188504E-03
 -1.86013799E-02 -5.97780215E-08 -1.80839225E-02  1.07175462E-02  6.23632957E-02
  1.16250003E-01  4.60958336E-07  8.21627085E-02  9.33799907E-02  1.42337156E-01
  5.84309525E-07 -3.48867459E-02 -4.01605103E-02  3.99160482E-02  7.67377899E-02
  1.06042652E-01  1.63349903E-02 -2.59922987E-02 -6.03368702E-02 -4.05322771E-02
 -1.93535211E-07 -2.34747650E-02  9.53668479E-03 -4.29677069E-02 -1.37949978E-07
 -3.72160842E-02  2.64945723E-02  1.54187239E-01  2.82815856E-01  1.12419462E-06
  1.99617053E-01  2.28412591E-01  3.46319161E-01  1.42313076E-06 -8.28043509E-02
 -9.59840639E-02  9.60537793E-02  1.86016810E-01  2.58005759E-01  6.27802047E-01
  1.46542431E-02 -1.70701354E-02 -4.84389375E-02  1.44084343E-02  6.28467486E-09
 -7.13385688E-02 -4.80138533E-02  3.27816644E-02  6.79580490E-08 -7.80938993E-02
  7.62957545E-02  1.53127994E-01 -1.40958320E-01 -3.25008857E-07  2.17182036E-01
  5.01457984E-02 -1.07362086E-01 -3.15369680E-07  2.26950966E-02  2.83402364E-02
 -8.01146912E-03 -8.18817426E-03 -2.78070894E-02 -6.65893210E-02  1.86852100E-01
  2.70022584E-02 -2.23166323E-02 -7.30243273E-02  2.71266364E-02  2.27002422E-08
 -6.14873590E-02 -5.23184035E-02  3.16822779E-02  5.68904939E-08  5.21656806E-03
  2.24201026E-02  1.21758981E-01 -1.18887318E-01 -2.85899756E-07  7.35060395E-02
  2.69369308E-02 -9.58860399E-02 -3.03772099E-07  3.30072316E-02  4.04106124E-02
 -7.94367675E-03 -1.13080897E-02 -3.81558424E-02 -9.17162843E-02  1.24635978E-01
  9.65941299E-02
Mulliken Charges                           R   N=           6
 -4.53465610E-01 -1.27508407E-01  2.50902616E-01  2.24344407E-01 -1.38261308E-01
  2.43988301E-01
ONIOM Charges                              I   N=          16
           0           0           0           0           0           0
           0           0           0           0           0           0
           0           0           0           0
ONIOM Multiplicities                       I   N=          16
           1           0           0           0           0           0
           0           0           0           0           0           0
           0           0           0           0
Atom Layers                                I   N=           6
           1           1           1           1           1           1
Atom Modifiers                             I   N=           6
           0           0           0           0           0           0
Force Field                                I                0
Int Atom Modified Types                    I   N=           6
           0           0           0           0           0           0
Link Atoms                                 I   N=           6
           0           0           0           0           0           0
Atom Modified MM Charges                   R   N=           6
  0.00000000E+00  0.00000000E+00  0.00000000E+00  0.00000000E+00  0.00000000E+00
  0.00000000E+00
Link Distances                             R   N=          24
  0.00000000E+00  0.00000000E+00  0.00000000E+00  0.00000000E+00  0.00000000E+00
  0.00000000E+00  0.00000000E+00  0.00000000E+00  0.00000000E+00  0.00000000E+00
  0.00000000E+00  0.00000000E+00  0.00000000E+00  0.00000000E+00  0.00000000E+00