 Entering Gaussian System, Link 0=/home/george/soft/gauss//g09/g09
 Initial command:
 /home/george/soft/gauss//g09/l1.exe "/home/george/soft/gauss/scr/Gau-15735.inp" -scrdir="/home/george/soft/gauss/scr/"
 Entering Link 1 = /home/george/soft/gauss//g09/l1.exe PID=     15737.
  
 Copyright (c) 1988,1990,1992,1993,1995,1998,2003,2009,2013,
            Gaussian, Inc.  All Rights Reserved.
  
 This is part of the Gaussian(R) 09 program.  It is based on
 the Gaussian(R) 03 system (copyright 2003, Gaussian, Inc.),
 the Gaussian(R) 98 system (copyright 1998, Gaussian, Inc.),
 the Gaussian(R) 94 system (copyright 1995, Gaussian, Inc.),
 the Gaussian 92(TM) system (copyright 1992, Gaussian, Inc.),
 the Gaussian 90(TM) system (copyright 1990, Gaussian, Inc.),
 the Gaussian 88(TM) system (copyright 1988, Gaussian, Inc.),
 the Gaussian 86(TM) system (copyright 1986, Carnegie Mellon
 University), and the Gaussian 82(TM) system (copyright 1983,
 Carnegie Mellon University). Gaussian is a federally registered
 trademark of Gaussian, Inc.
  
 This software contains proprietary and confidential information,
 including trade secrets, belonging to Gaussian, Inc.
  
 This software is provided under written license and may be
 used, copied, transmitted, or stored only in accord with that
 written license.
  
 The following legend is applicable only to US Government
 contracts under FAR:
  
                    RESTRICTED RIGHTS LEGEND
  
 Use, reproduction and disclosure by the US Government is
 subject to restrictions as set forth in subparagraphs (a)
 and (c) of the Commercial Computer Software - Restricted
 Rights clause in FAR 52.227-19.
  
 Gaussian, Inc.
 340 Quinnipiac St., Bldg. 40, Wallingford CT 06492
  
  
 ---------------------------------------------------------------
 Warning -- This program may not be used in any manner that
 competes with the business of Gaussian, Inc. or will provide
 assistance to any competitor of Gaussian, Inc.  The licensee
 of this program is prohibited from giving any competitor of
 Gaussian, Inc. access to this program.  By using this program,
 the user acknowledges that Gaussian, Inc. is engaged in the
 business of creating and licensing software in the field of
 computational chemistry and represents and warrants to the
 licensee that it is not a competitor of Gaussian, Inc. and that
 it will not use this program in any manner prohibited above.
 ---------------------------------------------------------------
  

 Cite this work as:
 Gaussian 09, Revision D.01,
 M. J. Frisch, G. W. Trucks, H. B. Schlegel, G. E. Scuseria, 
 M. A. Robb, J. R. Cheeseman, G. Scalmani, V. Barone, B. Mennucci, 
 G. A. Petersson, H. Nakatsuji, M. Caricato, X. Li, H. P. Hratchian, 
 A. F. Izmaylov, J. Bloino, G. Zheng, J. L. Sonnenberg, M. Hada, 
 M. Ehara, K. Toyota, R. Fukuda, J. Hasegawa, M. Ishida, T. Nakajima, 
 Y. Honda, O. Kitao, H. Nakai, T. Vreven, J. A. Montgomery, Jr., 
 J. E. Peralta, F. Ogliaro, M. Bearpark, J. J. Heyd, E. Brothers, 
 K. N. Kudin, V. N. Staroverov, T. Keith, R. Kobayashi, J. Normand, 
 K. Raghavachari, A. Rendell, J. C. Burant, S. S. Iyengar, J. Tomasi, 
 M. Cossi, N. Rega, J. M. Millam, M. Klene, J. E. Knox, J. B. Cross, 
 V. Bakken, C. Adamo, J. Jaramillo, R. Gomperts, R. E. Stratmann, 
 O. Yazyev, A. J. Austin, R. Cammi, C. Pomelli, J. W. Ochterski, 
 R. L. Martin, K. Morokuma, V. G. Zakrzewski, G. A. Voth, 
 P. Salvador, J. J. Dannenberg, S. Dapprich, A. D. Daniels, 
 O. Farkas, J. B. Foresman, J. V. Ortiz, J. Cioslowski, 
 and D. J. Fox, Gaussian, Inc., Wallingford CT, 2013.
 
 ******************************************
 Gaussian 09:  AM64L-G09RevD.01 24-Apr-2013
                11-Oct-2017 
 ******************************************
 %RWF=./tmp/6165481552517470805/rwf
 %Int=./tmp/6165481552517470805/int
 %D2E=./tmp/6165481552517470805/d2e
 %Scr=./tmp/6165481552517470805/skr
 %NoSave
 %chk=./tmp/6165481552517470805/chk
 %nproc=3
 Will use up to    3 processors via shared memory.
 %mem=1000mb
 ------------------------
 # B3lyp/3-21g nosym freq
 ------------------------
 1/10=4,30=1,38=1/1,3;
 2/12=2,15=1,17=6,18=5,40=1/2;
 3/5=5,11=2,16=1,25=1,30=1,71=2,74=-5,140=1/1,2,3;
 4//1;
 5/5=2,38=5,98=1/2;
 8/6=4,10=90,11=11/1;
 11/6=1,8=1,9=11,15=111,16=1,31=1/1,2,10;
 10/6=1,31=1/2;
 6/7=2,8=2,9=2,10=2,18=1,28=1/1;
 7/8=1,10=1,25=1,30=1/1,2,3,16;
 1/10=4,30=1/3;
 99//99;


 Symbolic Z-matrix:
 Charge =  0 Multiplicity = 1
 6                    -0.84527  -0.19565  0. 
 6                     0.4303   -0.4294   0. 
 1                    -1.26039   0.81      0. 
 1                    -1.58397  -1.00641  -0.00001 
 1                     2.06747   2.00903   0.00001 
 1                     1.19185  -1.18756  0. 
 

 GradGradGradGradGradGradGradGradGradGradGradGradGradGradGradGradGradGrad
 Berny optimization.
 Initialization pass.
 Trust Radius=3.00D-01 FncErr=1.00D-07 GrdErr=1.00D-07
 Number of steps in this run=      2 maximum allowed number of steps=      2.
 GradGradGradGradGradGradGradGradGradGradGradGradGradGradGradGradGradGrad

                          Input orientation:                          
 ---------------------------------------------------------------------
 Center     Atomic      Atomic             Coordinates (Angstroms)
 Number     Number       Type             X           Y           Z
 ---------------------------------------------------------------------
      1          6           0       -0.845267   -0.195652   -0.000002
      2          6           0        0.430300   -0.429405   -0.000001
      3          1           0       -1.260386    0.810001    0.000001
      4          1           0       -1.583969   -1.006412   -0.000005
      5          1           0        2.067474    2.009027    0.000009
      6          1           0        1.191847   -1.187559   -0.000003
 ---------------------------------------------------------------------
                    Distance matrix (angstroms):
                    1          2          3          4          5
     1  C    0.000000
     2  C    1.296809   0.000000
     3  H    1.087962   2.096317   0.000000
     4  H    1.096819   2.095285   1.845010   0.000000
     5  H    3.653037   2.937055   3.537275   4.735601   0.000000
     6  H    2.265770   1.074593   3.162861   2.781721   3.314345
                    6
     6  H    0.000000
 Symmetry turned off by external request.
 Stoichiometry    C2H4
 Framework group  C1[X(C2H4)]
 Deg. of freedom    12
 Full point group                 C1      NOp   1
 Rotational constants (GHZ):     64.5221894     24.9583362     17.9968377
 Standard basis: 3-21G (6D, 7F)
    26 basis functions,    42 primitive gaussians,    26 cartesian basis functions
     8 alpha electrons        8 beta electrons
       nuclear repulsion energy        30.9048215390 Hartrees.
 NAtoms=    6 NActive=    6 NUniq=    6 SFac= 1.00D+00 NAtFMM=   60 NAOKFM=F Big=F
 Integral buffers will be    131072 words long.
 Raffenetti 2 integral format.
 Two-electron integral symmetry is turned off.
 One-electron integrals computed using PRISM.
 NBasis=    26 RedAO= T EigKep=  1.24D-02  NBF=    26
 NBsUse=    26 1.00D-06 EigRej= -1.00D+00 NBFU=    26
 ExpMin= 1.83D-01 ExpMax= 1.72D+02 ExpMxC= 1.72D+02 IAcc=1 IRadAn=         1 AccDes= 0.00D+00
 Harris functional with IExCor=  402 and IRadAn=       1 diagonalized for initial guess.
 HarFok:  IExCor=  402 AccDes= 0.00D+00 IRadAn=         1 IDoV= 1 UseB2=F ITyADJ=14
 ICtDFT=  3500011 ScaDFX=  1.000000  1.000000  1.000000  1.000000
 FoFCou: FMM=F IPFlag=           0 FMFlag=      100000 FMFlg1=           0
         NFxFlg=           0 DoJE=T BraDBF=F KetDBF=T FulRan=T
         wScrn=  0.000000 ICntrl=     500 IOpCl=  0 I1Cent=   200000004 NGrid=           0
         NMat0=    1 NMatS0=      1 NMatT0=    0 NMatD0=    1 NMtDS0=    0 NMtDT0=    0
 Symmetry not used in FoFCou.
 Keep R1 ints in memory in canonical form, NReq=942464.
 Requested convergence on RMS density matrix=1.00D-08 within 128 cycles.
 Requested convergence on MAX density matrix=1.00D-06.
 Requested convergence on             energy=1.00D-06.
 No special actions if energy rises.
 Integral accuracy reduced to 1.0D-05 until final iterations.
 Initial convergence to 1.0D-05 achieved.  Increase integral accuracy.
 SCF Done:  E(RB3LYP) =  -77.9386723467     A.U. after   13 cycles
            NFock= 13  Conv=0.50D-08     -V/T= 2.0113
 DoSCS=F DFT=T ScalE2(SS,OS)=  1.000000  1.000000
 Range of M.O.s used for correlation:     1    26
 NBasis=    26 NAE=     8 NBE=     8 NFC=     0 NFV=     0
 NROrb=     26 NOA=     8 NOB=     8 NVA=    18 NVB=    18

 **** Warning!!: The smallest alpha delta epsilon is  0.82249870D-01

 Symmetrizing basis deriv contribution to polar:
 IMax=3 JMax=2 DiffMx= 0.00D+00
 G2DrvN: will do     7 centers at a time, making    1 passes.
 Calling FoFCou, ICntrl=  3107 FMM=F I1Cent=   0 AccDes= 0.00D+00.
 End of G2Drv F.D. properties file   721 does not exist.
 End of G2Drv F.D. properties file   722 does not exist.
 End of G2Drv F.D. properties file   788 does not exist.
          IDoAtm=111111
          Differentiating once with respect to electric field.
                with respect to dipole field.
          Differentiating once with respect to nuclear coordinates.
 Keep R1 ints in memory in canonical form, NReq=921684.
          There are    21 degrees of freedom in the 1st order CPHF.  IDoFFX=6 NUNeed=     3.
     18 vectors produced by pass  0 Test12= 6.86D-16 4.76D-09 XBig12= 4.37D+02 2.02D+01.
 AX will form    18 AO Fock derivatives at one time.
     18 vectors produced by pass  1 Test12= 6.86D-16 4.76D-09 XBig12= 8.46D+01 3.35D+00.
     18 vectors produced by pass  2 Test12= 6.86D-16 4.76D-09 XBig12= 3.71D-01 2.04D-01.
     18 vectors produced by pass  3 Test12= 6.86D-16 4.76D-09 XBig12= 1.22D-04 3.45D-03.
     15 vectors produced by pass  4 Test12= 6.86D-16 4.76D-09 XBig12= 2.79D-08 5.54D-05.
      3 vectors produced by pass  5 Test12= 6.86D-16 4.76D-09 XBig12= 8.76D-12 7.72D-07.
      2 vectors produced by pass  6 Test12= 6.86D-16 4.76D-09 XBig12= 2.38D-15 1.73D-08.
 InvSVY:  IOpt=1 It=  1 EMax= 7.11D-15
 Solved reduced A of dimension    92 with    21 vectors.
 Isotropic polarizability for W=    0.000000       37.79 Bohr**3.
 End of Minotr F.D. properties file   721 does not exist.
 End of Minotr F.D. properties file   722 does not exist.
 End of Minotr F.D. properties file   788 does not exist.

 **********************************************************************

            Population analysis using the SCF density.

 **********************************************************************

 Alpha  occ. eigenvalues --  -10.18921 -10.15612  -0.79188  -0.59337  -0.48894
 Alpha  occ. eigenvalues --   -0.45495  -0.30799  -0.20911
 Alpha virt. eigenvalues --   -0.12686   0.00212   0.12693   0.13985   0.21639
 Alpha virt. eigenvalues --    0.37598   0.64657   0.69700   0.74037   0.74789
 Alpha virt. eigenvalues --    0.77526   0.84021   0.99839   1.00019   1.06117
 Alpha virt. eigenvalues --    1.18714   1.31446   1.63468
          Condensed to atoms (all electrons):
               1          2          3          4          5          6
     1  C    5.178220   0.599906   0.368959   0.352208  -0.000977  -0.044795
     2  C    0.599906   5.193113  -0.039736  -0.057164   0.072384   0.358829
     3  H    0.368959  -0.039736   0.446593  -0.027100  -0.001721   0.001705
     4  H    0.352208  -0.057164  -0.027100   0.508322   0.000123  -0.001050
     5  H   -0.000977   0.072384  -0.001721   0.000123   1.072845  -0.002707
     6  H   -0.044795   0.358829   0.001705  -0.001050  -0.002707   0.443180
 Mulliken charges:
               1
     1  C   -0.453521
     2  C   -0.127332
     3  H    0.251299
     4  H    0.224662
     5  H   -0.139947
     6  H    0.244838
 Sum of Mulliken charges =   0.00000
 Mulliken charges with hydrogens summed into heavy atoms:
               1
     1  C    0.022440
     2  C   -0.022440
 APT charges:
               1
     1  C   -0.319279
     2  C    0.275270
     3  H    0.096401
     4  H    0.064341
     5  H   -0.155567
     6  H    0.038834
 Sum of APT charges =   0.00000
 APT charges with hydrogens summed into heavy atoms:
               1
     1  C   -0.158537
     2  C    0.158537
 Electronic spatial extent (au):  <R**2>=            117.1418
 Charge=              0.0000 electrons
 Dipole moment (field-independent basis, Debye):
    X=             -1.7396    Y=             -2.0160    Z=              0.0000  Tot=              2.6628
 Quadrupole moment (field-independent basis, Debye-Ang):
   XX=            -14.0051   YY=            -14.2708   ZZ=            -15.7276
   XY=             -3.5122   XZ=              0.0000   YZ=              0.0000
 Traceless Quadrupole moment (field-independent basis, Debye-Ang):
   XX=              0.6627   YY=              0.3970   ZZ=             -1.0598
   XY=             -3.5122   XZ=              0.0000   YZ=              0.0000
 Octapole moment (field-independent basis, Debye-Ang**2):
  XXX=             -5.6188  YYY=             -1.0724  ZZZ=              0.0000  XYY=             -3.7283
  XXY=             -5.2724  XXZ=              0.0000  XZZ=              0.6233  YZZ=              1.6279
  YYZ=              0.0000  XYZ=              0.0000
 Hexadecapole moment (field-independent basis, Debye-Ang**3):
 XXXX=           -105.2358 YYYY=            -71.5875 ZZZZ=            -16.0724 XXXY=            -25.6373
 XXXZ=             -0.0001 YYYX=            -25.2918 YYYZ=             -0.0001 ZZZX=             -0.0001
 ZZZY=             -0.0001 XXYY=            -30.6662 XXZZ=            -20.4860 YYZZ=            -14.3522
 XXYZ=             -0.0001 YYXZ=             -0.0001 ZZXY=             -5.7098
 N-N= 3.090482153898D+01 E-N=-2.413386923629D+02  KE= 7.706915076115D+01
  Exact polarizability:  56.071  28.733  50.897   0.000   0.000   6.409
 Approx polarizability: 178.123 163.370 234.367   0.001   0.001   7.218
 Calling FoFJK, ICntrl=    100127 FMM=F ISym2X=0 I1Cent= 0 IOpClX= 0 NMat=1 NMatS=1 NMatT=0.
 Full mass-weighted force constant matrix:
 Low frequencies --- -659.8183  -20.8508    0.0001    0.0005    0.0010  130.4417
 Low frequencies ---  267.3515  466.9651  481.6201
 ******    1 imaginary frequencies (negative Signs) ****** 
 Diagonal vibrational polarizability:
        3.0700291       6.3895067       4.4618693
 Harmonic frequencies (cm**-1), IR intensities (KM/Mole), Raman scattering
 activities (A**4/AMU), depolarization ratios for plane and unpolarized
 incident light, reduced masses (AMU), force constants (mDyne/A),
 and normal coordinates:
                      1                      2                      3
                      A                      A                      A
 Frequencies --   -659.8180               431.5201               435.7420
 Red. masses --      1.0731                 1.1543                 1.2869
 Frc consts  --      0.2753                 0.1266                 0.1440
 IR Inten    --     65.7102                 2.0841                 5.8940
  Atom  AN      X      Y      Z        X      Y      Z        X      Y      Z
     1   6    -0.01   0.00   0.00     0.00   0.00  -0.03     0.05   0.08   0.00
     2   6    -0.03  -0.07   0.00     0.00   0.00   0.11     0.01  -0.13   0.00
     3   1     0.02   0.01   0.00     0.00   0.00   0.48     0.26   0.16   0.00
     4   1    -0.05   0.03   0.00     0.00   0.00  -0.67    -0.12   0.23   0.00
     5   1     0.55   0.83   0.00     0.00   0.00  -0.46    -0.80   0.39   0.00
     6   1     0.02   0.00   0.00     0.00   0.00  -0.31    -0.03  -0.17   0.00
                      4                      5                      6
                      A                      A                      A
 Frequencies --    704.9163               796.0586               949.6570
 Red. masses --      1.0557                 1.1958                 1.2785
 Frc consts  --      0.3091                 0.4465                 0.6794
 IR Inten    --     26.9652                33.6747                91.5093
  Atom  AN      X      Y      Z        X      Y      Z        X      Y      Z
     1   6     0.02   0.02   0.00     0.00   0.00   0.06     0.00   0.00   0.15
     2   6     0.04   0.05   0.00     0.00   0.00  -0.12     0.00   0.00  -0.02
     3   1    -0.25  -0.10   0.00     0.00   0.00   0.29     0.00   0.00  -0.76
     4   1     0.26  -0.21   0.00     0.00   0.00  -0.41     0.00   0.00  -0.60
     5   1    -0.03   0.13   0.00     0.00   0.00  -0.05     0.00   0.00   0.01
     6   1    -0.62  -0.65   0.00     0.00   0.00   0.85     0.00   0.00  -0.20
                      7                      8                      9
                      A                      A                      A
 Frequencies --   1027.0131              1433.4663              1689.8270
 Red. masses --      1.4850                 1.0857                 5.4068
 Frc consts  --      0.9228                 1.3144                 9.0965
 IR Inten    --     95.1386                18.8325                41.1807
  Atom  AN      X      Y      Z        X      Y      Z        X      Y      Z
     1   6     0.03   0.15   0.00     0.01   0.00   0.00     0.46  -0.10   0.00
     2   6    -0.05  -0.13   0.00     0.08  -0.01   0.00    -0.41   0.08   0.00
     3   1    -0.61  -0.13   0.00    -0.68  -0.26   0.00    -0.13  -0.38   0.00
     4   1     0.55  -0.36   0.00    -0.51   0.45   0.00    -0.04   0.40   0.00
     5   1    -0.04  -0.05   0.00     0.00   0.00   0.00    -0.02  -0.05   0.00
     6   1     0.28   0.23   0.00     0.06  -0.06   0.00    -0.44   0.28   0.00
                     10                     11                     12
                      A                      A                      A
 Frequencies --   3042.9628              3162.9782              3333.1458
 Red. masses --      1.0691                 1.0942                 1.1140
 Frc consts  --      5.8328                 6.4496                 7.2917
 IR Inten    --      4.4702                 1.3435                 9.6085
  Atom  AN      X      Y      Z        X      Y      Z        X      Y      Z
     1   6    -0.06  -0.04   0.00     0.02  -0.09   0.00     0.02   0.00   0.00
     2   6     0.00   0.00   0.00     0.00   0.00   0.00    -0.08   0.06   0.00
     3   1     0.06  -0.21   0.00    -0.38   0.90   0.00    -0.01   0.02   0.00
     4   1     0.65   0.72   0.00     0.15   0.13   0.00    -0.03  -0.03   0.00
     5   1     0.00   0.00   0.00     0.00   0.00   0.00     0.00   0.00   0.00
     6   1     0.04  -0.04   0.00    -0.02   0.01   0.00     0.72  -0.68   0.00

 -------------------
 - Thermochemistry -
 -------------------
 Temperature   298.150 Kelvin.  Pressure   1.00000 Atm.
 Atom     1 has atomic number  6 and mass  12.00000
 Atom     2 has atomic number  6 and mass  12.00000
 Atom     3 has atomic number  1 and mass   1.00783
 Atom     4 has atomic number  1 and mass   1.00783
 Atom     5 has atomic number  1 and mass   1.00783
 Atom     6 has atomic number  1 and mass   1.00783
 Molecular mass:    28.03130 amu.
 Principal axes and moments of inertia in atomic units:
                           1         2         3
     Eigenvalues --    27.97086  72.31016 100.28102
           X            0.98677  -0.16214   0.00000
           Y            0.16214   0.98677   0.00000
           Z            0.00000   0.00000   1.00000
 This molecule is an asymmetric top.
 Rotational symmetry number  1.
 Rotational temperatures (Kelvin)      3.09657     1.19781     0.86371
 Rotational constants (GHZ):          64.52219    24.95834    17.99684
    1 imaginary frequencies ignored.
 Zero-point vibrational energy     101726.2 (Joules/Mol)
                                   24.31314 (Kcal/Mol)
 Warning -- explicit consideration of   2 degrees of freedom as
           vibrations may cause significant error
 Vibrational temperatures:    620.86   626.93  1014.22  1145.35  1366.34
          (Kelvin)           1477.64  2062.44  2431.28  4378.14  4550.81
                             4795.65
 
 Zero-point correction=                           0.038745 (Hartree/Particle)
 Thermal correction to Energy=                    0.042411
 Thermal correction to Enthalpy=                  0.043355
 Thermal correction to Gibbs Free Energy=         0.015657
 Sum of electronic and zero-point Energies=            -77.899927
 Sum of electronic and thermal Energies=               -77.896261
 Sum of electronic and thermal Enthalpies=             -77.895317
 Sum of electronic and thermal Free Energies=          -77.923015
 
                     E (Thermal)             CV                S
                      KCal/Mol        Cal/Mol-Kelvin    Cal/Mol-Kelvin
 Total                   26.613             11.150             58.296
 Electronic               0.000              0.000              0.000
 Translational            0.889              2.981             35.927
 Rotational               0.889              2.981             19.945
 Vibrational             24.836              5.188              2.424
 Vibration     1          0.793              1.402              0.854
 Vibration     2          0.796              1.392              0.840
                       Q            Log10(Q)             Ln(Q)
 Total Bot       0.628488D-07         -7.201703        -16.582534
 Total V=0       0.416802D+11         10.619930         24.453292
 Vib (Bot)       0.211334D-17        -17.675031        -40.698263
 Vib (Bot)    1  0.403300D+00         -0.394372         -0.908075
 Vib (Bot)    2  0.398069D+00         -0.400041         -0.921129
 Vib (V=0)       0.140153D+01          0.146601          0.337562
 Vib (V=0)    1  0.114238D+01          0.057810          0.133113
 Vib (V=0)    2  0.113911D+01          0.056565          0.130246
 Electronic      0.100000D+01          0.000000          0.000000
 Translational   0.583338D+07          6.765920         15.579107
 Rotational      0.509810D+04          3.707408          8.536623
 -------------------------------------------------------------------
 Center     Atomic                   Forces (Hartrees/Bohr)
 Number     Number              X              Y              Z
 -------------------------------------------------------------------
      1        6          -0.000655013    0.000005058    0.000000017
      2        6           0.017649405    0.026911942    0.000000118
      3        1          -0.000218016   -0.000247997   -0.000000008
      4        1           0.000274342   -0.000312161   -0.000000009
      5        1          -0.017012179   -0.026296171   -0.000000114
      6        1          -0.000038538   -0.000060671   -0.000000004
 -------------------------------------------------------------------
 Cartesian Forces:  Max     0.026911942 RMS     0.010586608

 GradGradGradGradGradGradGradGradGradGradGradGradGradGradGradGradGradGrad
 Berny optimization.
 Search for a local minimum.
 Step number   1 out of a maximum of    2
 All quantities printed in internal units (Hartrees-Bohrs-Radians)
 Second derivative matrix not updated -- analytic derivatives used.
 The second derivative matrix:
                          X1        Y1        Z1        X2        Y2
           X1           0.86336
           Y1          -0.08810   0.55946
           Z1           0.00000   0.00000   0.10271
           X2          -0.62110   0.10221   0.00000   0.88271
           Y2           0.13731  -0.09295   0.00000  -0.32397   0.27504
           Z2           0.00000   0.00000  -0.03668   0.00000   0.00000
           X3          -0.07987   0.09534   0.00000  -0.02202   0.02854
           Y3           0.09588  -0.28720   0.00000   0.00497  -0.00036
           Z3           0.00000   0.00000  -0.03458   0.00000   0.00000
           X4          -0.15566  -0.12830   0.00000  -0.03130  -0.02336
           Y4          -0.12392  -0.18640   0.00000   0.00396   0.00418
           Z4           0.00000   0.00000  -0.03474   0.00000   0.00000
           X5          -0.00554  -0.00133   0.00000   0.00340   0.01339
           Y5          -0.00415   0.00067   0.00000   0.01527   0.00883
           Z5           0.00000   0.00000   0.00041   0.00000   0.00000
           X6          -0.00119   0.02017   0.00000  -0.21169   0.16808
           Y6          -0.01702   0.00642   0.00000   0.19757  -0.19473
           Z6           0.00000   0.00000   0.00288   0.00000   0.00000
                          Z2        X3        Y3        Z3        X4
           Z2           0.05540
           X3           0.00000   0.09590
           Y3           0.00000  -0.10648   0.30884
           Z3           0.00066   0.00000   0.00000   0.01854
           X4           0.00000   0.00757   0.00869   0.00000   0.17772
           Y4           0.00000  -0.01930  -0.01973   0.00000   0.13989
           Z4           0.01215   0.00000   0.00000   0.00833   0.00000
           X5           0.00000   0.00081  -0.00176   0.00000   0.00052
           Y5           0.00000   0.00076  -0.00062   0.00000   0.00130
           Z5          -0.00734   0.00000   0.00000  -0.00145   0.00000
           X6           0.00000  -0.00240  -0.00129   0.00000   0.00114
           Y6           0.00000   0.00113  -0.00092   0.00000   0.00177
           Z6          -0.02418   0.00000   0.00000   0.00851   0.00000
                          Y4        Z4        X5        Y5        Z5
           Y4           0.20123
           Z4           0.00000   0.01543
           X5           0.00000   0.00000   0.00088
           Y5           0.00045   0.00000  -0.01040  -0.00825
           Z5           0.00000   0.00189   0.00000   0.00000   0.00676
           X6          -0.00064   0.00000  -0.00008  -0.00278   0.00000
           Y6           0.00028   0.00000   0.00009  -0.00108   0.00000
           Z6           0.00000  -0.00306   0.00000   0.00000  -0.00027
                          X6        Y6        Z6
           X6           0.21420
           Y6          -0.18354   0.19003
           Z6           0.00000   0.00000   0.01612
 ITU=  0
     Eigenvalues ---   -0.02161   0.00906   0.01011   0.02327   0.04727
     Eigenvalues ---    0.09982   0.12401   0.12710   0.33082   0.59223
     Eigenvalues ---    0.74398   1.66848
 Eigenvalue     1 is  -2.16D-02 should be greater than     0.000000 Eigenvector:
                          Y5        X5        Y2        X4        X2
   1                    0.79020   0.51483  -0.23706  -0.15102  -0.11408
                          Y6        X1        Y1        X3        Y4
   1                   -0.09129  -0.06028  -0.05734   0.04880   0.02549
 Quadratic step=1.773D+00 exceeds max=3.000D-01 adjusted using Lamda=-1.088D-01.
 Angle between NR and scaled steps=   9.61 degrees.
 Angle between quadratic step and forces=  23.29 degrees.
 Linear search not attempted -- first point.
 TrRot=  0.015872  0.025800  0.000000  0.001663  0.000000  0.001663
 Variable       Old X    -DE/DX   Delta X   Delta X   Delta X     New X
                                 (Linear)    (Quad)   (Total)
    X1       -1.59732  -0.00066   0.00000   0.01235   0.02947  -1.56785
    Y1       -0.36973   0.00001   0.00000  -0.00387   0.01666  -0.35307
    Z1        0.00000   0.00000   0.00000   0.00000   0.00000   0.00000
    X2        0.81315   0.01765   0.00000   0.05371   0.07191   0.88506
    Y2       -0.81146   0.02691   0.00000   0.11045   0.13914  -0.67232
    Z2        0.00000   0.00000   0.00000   0.00000   0.00000   0.00000
    X3       -2.38178  -0.00022   0.00000  -0.01416  -0.00331  -2.38509
    Y3        1.53068  -0.00025   0.00000  -0.01603   0.00179   1.53247
    Z3        0.00000   0.00000   0.00000   0.00000   0.00000   0.00000
    X4       -2.99327   0.00027   0.00000   0.01466   0.03691  -2.95635
    Y4       -1.90184  -0.00031   0.00000  -0.01212   0.00378  -1.89806
    Z4       -0.00001   0.00000   0.00000   0.00000   0.00000  -0.00001
    X5        3.90696  -0.01701   0.00000  -0.13267  -0.12866   3.77830
    Y5        3.79651  -0.02630   0.00000  -0.23552  -0.19719   3.59932
    Z5        0.00002   0.00000   0.00000   0.00000   0.00000   0.00002
    X6        2.25226  -0.00004   0.00000  -0.02963  -0.00632   2.24594
    Y6       -2.24416  -0.00006   0.00000   0.00261   0.03582  -2.20834
    Z6       -0.00001   0.00000   0.00000   0.00000   0.00000  -0.00001
         Item               Value     Threshold  Converged?
 Maximum Force            0.026912     0.000450     NO 
 RMS     Force            0.010587     0.000300     NO 
 Maximum Displacement     0.197190     0.001800     NO 
 RMS     Displacement     0.068243     0.001200     NO 
 Predicted change in Energy=-1.291613D-02
 GradGradGradGradGradGradGradGradGradGradGradGradGradGradGradGradGradGrad

 1\1\GINC-GEORGE-DELL\Freq\RB3LYP\3-21G\C2H4\GEORGE\11-Oct-2017\0\\# B3
 lyp/3-21g nosym freq\\\0,1\C,-0.8452671545,-0.1956523674,-0.000001937\
 C,0.4303003573,-0.4294047616,-0.0000014695\H,-1.2603856361,0.810000695
 6,0.000001259\H,-1.5839693292,-1.0064121114,-0.0000053267\H,2.06747448
 55,2.0090272918,0.0000090693\H,1.1918471728,-1.1875588338,-0.000003245
 4\\Version=AM64L-G09RevD.01\HF=-77.9386723\RMSD=4.960e-09\RMSF=1.059e-
 02\ZeroPoint=0.0387455\Thermal=0.042411\Dipole=-0.6844169,-0.7931527,-
 0.0000034\DipoleDeriv=-0.4062139,-0.2080678,-0.0000009,-0.1206654,-0.2
 655298,-0.0000001,-0.0000006,-0.0000001,-0.2860948,0.5730559,0.6437824
 ,0.0000031,0.2989781,0.4557171,0.0000027,0.0000019,0.0000029,-0.202963
 6,0.0498958,0.0075947,-0.0000001,0.0092911,0.038754,-0.0000005,0.,-0.0
 000006,0.2005528,-0.0477825,-0.1861048,-0.0000009,-0.0320804,0.0628022
 ,-0.0000004,-0.0000003,-0.0000006,0.1780044,-0.1578335,-0.0417142,-0.0
 000002,-0.0532951,-0.1790674,-0.0000002,-0.0000002,-0.0000002,-0.12979
 89,-0.0111218,-0.2154903,-0.000001,-0.1022283,-0.1126761,-0.0000014,-0
 .0000006,-0.0000014,0.2403001\Polar=56.0712982,28.7334509,50.8967193,0
 .0001547,0.0001892,6.4090891\PG=C01 [X(C2H4)]\NImag=1\\0.86335804,-0.0
 8810244,0.55946334,0.00000041,0.00000150,0.10270774,-0.62110013,0.1022
 1343,-0.00000023,0.88270579,0.13731436,-0.09294921,-0.00000006,-0.3239
 7314,0.27503651,-0.00000011,-0.00000009,-0.03667664,-0.00000028,0.0000
 0041,0.05539779,-0.07986920,0.09534174,0.00000030,-0.02201828,0.028541
 11,0.00000008,0.09589974,0.09587530,-0.28720259,-0.00000081,0.00496561
 ,-0.00036165,0.,-0.10647515,0.30884207,0.00000030,-0.00000081,-0.03458
 340,0.,0.00000002,0.00065673,-0.00000030,0.00000093,0.01853613,-0.1556
 5942,-0.12830000,-0.00000054,-0.03130429,-0.02335544,-0.00000012,0.007
 57411,0.00869156,0.00000003,0.17772163,-0.12391765,-0.18639847,-0.0000
 0063,0.00395946,0.00417538,-0.00000002,-0.01929628,-0.01973470,-0.0000
 0011,0.13988717,0.20122585,-0.00000052,-0.00000063,-0.03473549,-0.0000
 0003,-0.00000005,0.01214912,-0.00000007,-0.00000009,0.00832704,0.00000
 062,0.00000076,0.01543054,-0.00554283,-0.00132659,-0.00000001,0.003402
 31,0.01338984,0.00000006,0.00081249,-0.00176381,0.,0.00052310,0.000002
 36,0.,0.00088075,-0.00415220,0.00066757,0.,0.01526958,0.00883073,0.000
 00008,0.00075892,-0.00061963,0.,0.00130443,0.00045180,0.,-0.01039644,-
 0.00825361,-0.00000002,0.,0.00040886,0.00000007,0.00000007,-0.00734235
 ,0.,0.,-0.00144951,0.,0.,0.00188771,-0.00000004,-0.00000007,0.00676326
 ,-0.00118646,0.02017385,0.00000007,-0.21168539,0.16808327,0.00000037,-
 0.00239886,-0.00129351,-0.00000002,0.00114486,-0.00063505,0.,-0.000075
 83,-0.00278429,0.,0.21420168,-0.01701737,0.00641936,0.,0.19756506,-0.1
 9473176,-0.00000037,0.00112966,-0.00092350,-0.00000003,0.00177227,0.00
 028013,0.00000001,0.00009464,-0.00107686,0.,-0.18354426,0.19003263,-0.
 00000006,0.00000003,0.00287893,0.00000047,-0.00000040,-0.02418465,0.,-
 0.00000003,0.00851301,0.00000001,0.00000001,-0.00305893,0.,0.,-0.00026
 797,-0.00000042,0.00000040,0.01611961\\0.00065501,-0.00000506,-0.00000
 002,-0.01764940,-0.02691194,-0.00000012,0.00021802,0.00024800,0.,-0.00
 027434,0.00031216,0.,0.01701218,0.02629617,0.00000011,0.00003854,0.000
 06067,0.\\\@


 I DON'T EXACTLY UNDERSTAND WHAT YOU ARE SAYING,
 BUT YOU ARE ABSOLUTELY RIGHT.
     M.S.GORDON, IN A NDSU FACULTY MEETING
 Job cpu time:       0 days  0 hours  0 minutes 35.0 seconds.
 File lengths (MBytes):  RWF=      5 Int=      0 D2E=      0 Chk=      1 Scr=      5
 Normal termination of Gaussian 09 at Wed Oct 11 07:01:38 2017.
