                                                                        
Freq      RB3LYP                                                      3-21G               
Number of atoms                            I                6
Info1-9                                    I   N=           9
          19          19           0           0           0         100
           6          18        -502
Charge                                     I                0
Multiplicity                               I                1
Number of electrons                        I               16
Number of alpha electrons                  I                8
Number of beta electrons                   I                8
Number of basis functions                  I               26
Number of independent functions            I               26
Number of point charges in /Mol/           I                0
Number of translation vectors              I                0
Atomic numbers                             I   N=           6
           6           6           1           1           1           1
Nuclear charges                            R   N=           6
  6.00000000E+00  6.00000000E+00  1.00000000E+00  1.00000000E+00  1.00000000E+00
  1.00000000E+00
Current cartesian coordinates              R   N=          18
 -1.61173475E+00 -6.99931338E-03 -1.00217611E+00  8.93478567E-01  1.52502173E-01
 -7.35292954E-02 -8.61757367E-01  1.25547377E+00  1.16764080E+00 -2.42064147E+00
 -1.83226457E+00 -3.51822207E-01  2.02391127E+00  1.80991755E+00 -5.53228112E-01
  1.97674355E+00 -1.37862978E+00  8.13111809E-01
Force Field                                I                0
Int Atom Types                             I   N=           6
           0           0           0           0           0           0
MM charges                                 R   N=           6
  0.00000000E+00  0.00000000E+00  0.00000000E+00  0.00000000E+00  0.00000000E+00
  0.00000000E+00
Integer atomic weights                     I   N=           6
          12          12           1           1           1           1
Real atomic weights                        R   N=           6
  1.20000000E+01  1.20000000E+01  1.00782504E+00  1.00782504E+00  1.00782504E+00
  1.00782504E+00
Atom fragment info                         I   N=           6
           0           0           0           0           0           0
Atom residue num                           I   N=           6
           0           0           0           0           0           0
Nuclear spins                              I   N=           6
           0           0           1           1           1           1
Nuclear ZEff                               R   N=           6
 -3.60000000E+00 -3.60000000E+00 -1.00000000E+00 -1.00000000E+00 -1.00000000E+00
 -1.00000000E+00
Nuclear ZNuc                               R   N=           6
  6.00000000E+00  6.00000000E+00  1.00000000E+00  1.00000000E+00  1.00000000E+00
  1.00000000E+00
Nuclear QMom                               R   N=           6
  0.00000000E+00  0.00000000E+00  0.00000000E+00  0.00000000E+00  0.00000000E+00
  0.00000000E+00
Nuclear GFac                               R   N=           6
  0.00000000E+00  0.00000000E+00  2.79284600E+00  2.79284600E+00  2.79284600E+00
  2.79284600E+00
MicOpt                                     I   N=           6
          -1          -1          -1          -1          -1          -1
Number of contracted shells                I               14
Number of primitive shells                 I               24
Pure/Cartesian d shells                    I                1
Pure/Cartesian f shells                    I                0
Highest angular momentum                   I                1
Largest degree of contraction              I                3
Shell types                                I   N=          14
           0          -1          -1           0          -1          -1
           0           0           0           0           0           0
           0           0
Number of primitives per shell             I   N=          14
           3           2           1           3           2           1
           2           1           2           1           2           1
           2           1
Shell to atom map                          I   N=          14
           1           1           1           2           2           2
           3           3           4           4           5           5
           6           6
Primitive exponents                        R   N=          24
  1.72256000E+02  2.59109000E+01  5.53335000E+00  3.66498000E+00  7.70545000E-01
  1.95857000E-01  1.72256000E+02  2.59109000E+01  5.53335000E+00  3.66498000E+00
  7.70545000E-01  1.95857000E-01  5.44717800E+00  8.24547240E-01  1.83191580E-01
  5.44717800E+00  8.24547240E-01  1.83191580E-01  5.44717800E+00  8.24547240E-01
  1.83191580E-01  5.44717800E+00  8.24547240E-01  1.83191580E-01
Contraction coefficients                   R   N=          24
  6.17669074E-02  3.58794043E-01  7.00713084E-01 -3.95895162E-01  1.21583436E+00
  1.00000000E+00  6.17669074E-02  3.58794043E-01  7.00713084E-01 -3.95895162E-01
  1.21583436E+00  1.00000000E+00  1.56284979E-01  9.04690877E-01  1.00000000E+00
  1.56284979E-01  9.04690877E-01  1.00000000E+00  1.56284979E-01  9.04690877E-01
  1.00000000E+00  1.56284979E-01  9.04690877E-01  1.00000000E+00
P(S=P) Contraction coefficients            R   N=          24
  0.00000000E+00  0.00000000E+00  0.00000000E+00  2.36459947E-01  8.60618806E-01
  1.00000000E+00  0.00000000E+00  0.00000000E+00  0.00000000E+00  2.36459947E-01
  8.60618806E-01  1.00000000E+00  0.00000000E+00  0.00000000E+00  0.00000000E+00
  0.00000000E+00  0.00000000E+00  0.00000000E+00  0.00000000E+00  0.00000000E+00
  0.00000000E+00  0.00000000E+00  0.00000000E+00  0.00000000E+00
Coordinates of each shell                  R   N=          42
 -1.61173475E+00 -6.99931338E-03 -1.00217611E+00 -1.61173475E+00 -6.99931338E-03
 -1.00217611E+00 -1.61173475E+00 -6.99931338E-03 -1.00217611E+00  8.93478567E-01
  1.52502173E-01 -7.35292954E-02  8.93478567E-01  1.52502173E-01 -7.35292954E-02
  8.93478567E-01  1.52502173E-01 -7.35292954E-02 -8.61757367E-01  1.25547377E+00
  1.16764080E+00 -8.61757367E-01  1.25547377E+00  1.16764080E+00 -2.42064147E+00
 -1.83226457E+00 -3.51822207E-01 -2.42064147E+00 -1.83226457E+00 -3.51822207E-01
  2.02391127E+00  1.80991755E+00 -5.53228112E-01  2.02391127E+00  1.80991755E+00
 -5.53228112E-01  1.97674355E+00 -1.37862978E+00  8.13111809E-01  1.97674355E+00
 -1.37862978E+00  8.13111809E-01
Constraint Structure                       R   N=          18
 -1.61173475E+00 -6.99931338E-03 -1.00217611E+00  8.93478567E-01  1.52502173E-01
 -7.35292954E-02 -8.61757367E-01  1.25547377E+00  1.16764080E+00 -2.42064147E+00
 -1.83226457E+00 -3.51822207E-01  2.02391127E+00  1.80991755E+00 -5.53228112E-01
  1.97674355E+00 -1.37862978E+00  8.13111809E-01
Num ILSW                                   I              100
ILSW                                       I   N=         100
           0           1           0           0           2           0
           0           0           0           0         402          -1
           0           0           0           0           2           0
           0           0           1           0           1           0
           1           1           0           0           0           0
           0           0      100000           0          -1           0
           0           0           0           0           0           0
           0           0           0           1           0           0
           0           0           1           0           0           0
           0           0           4          41           0           0
           0           0           5           0           0           0
           0           0           0           0           0           0
           0           0           0           0           0           0
           0           0           0           0           0           0
           0           0           0           0           0           0
           0           0           0           0           0           0
           0           0           0           0
Num RLSW                                   I               41
RLSW                                       R   N=          41
  8.00000000E-01  7.20000000E-01  1.00000000E+00  8.10000000E-01  2.00000000E-01
  0.00000000E+00  0.00000000E+00  1.00000000E+00  0.00000000E+00  0.00000000E+00
  0.00000000E+00  0.00000000E+00  1.00000000E+00  0.00000000E+00  0.00000000E+00
  0.00000000E+00  0.00000000E+00  1.00000000E+00  0.00000000E+00  0.00000000E+00
  0.00000000E+00  0.00000000E+00  1.00000000E+00  0.00000000E+00  0.00000000E+00
  0.00000000E+00  0.00000000E+00  1.00000000E+00  0.00000000E+00  0.00000000E+00
  0.00000000E+00  0.00000000E+00  1.00000000E+00  0.00000000E+00  0.00000000E+00
  0.00000000E+00  0.00000000E+00  0.00000000E+00  1.00000000E+00  1.00000000E+00
  0.00000000E+00
MxBond                                     I                4
NBond                                      I   N=           6
           2           4           1           1           1           1
IBond                                      I   N=          24
           2           4           0           0           1           3
           5           6           2           0           0           0
           1           0           0           0           2           0
           0           0           2           0           0           0
RBond                                      R   N=          24
  1.50000000E+00  1.00000000E+00  0.00000000E+00  0.00000000E+00  1.50000000E+00
  1.00000000E+00  1.00000000E+00  1.00000000E+00  1.00000000E+00  0.00000000E+00
  0.00000000E+00  0.00000000E+00  1.00000000E+00  0.00000000E+00  0.00000000E+00
  0.00000000E+00  1.00000000E+00  0.00000000E+00  0.00000000E+00  0.00000000E+00
  1.00000000E+00  0.00000000E+00  0.00000000E+00  0.00000000E+00
Virial Ratio                               R      2.008348179983058E+00
SCF Energy                                 R     -7.801792334481195E+01
Total Energy                               R     -7.801792334481195E+01
RMS Force                                  R      4.427770500067267E-06
RMS Density                                R      3.232381324199003E-09
External E-field                           R   N=          35
  0.00000000E+00  0.00000000E+00  0.00000000E+00  0.00000000E+00  0.00000000E+00
  0.00000000E+00  0.00000000E+00  0.00000000E+00  0.00000000E+00  0.00000000E+00
  0.00000000E+00  0.00000000E+00  0.00000000E+00  0.00000000E+00  0.00000000E+00
  0.00000000E+00  0.00000000E+00  0.00000000E+00  0.00000000E+00  0.00000000E+00
  0.00000000E+00  0.00000000E+00  0.00000000E+00  0.00000000E+00  0.00000000E+00
  0.00000000E+00  0.00000000E+00  0.00000000E+00  0.00000000E+00  0.00000000E+00
  0.00000000E+00  0.00000000E+00  0.00000000E+00  0.00000000E+00  0.00000000E+00
IOpCl                                      I                0
IROHF                                      I                0
Alpha Orbital Energies                     R   N=          26
 -1.01721719E+01 -1.01336338E+01 -8.22485842E-01 -5.82349793E-01 -4.88228368E-01
 -4.13316490E-01 -3.72231398E-01 -1.99607411E-01 -2.53266675E-02  7.67351696E-02
  1.25580324E-01  1.52267599E-01  2.11107860E-01  3.19184378E-01  6.84833632E-01
  7.17681090E-01  7.20438197E-01  7.73083480E-01  7.78946376E-01  8.49347871E-01
  9.32880815E-01  9.94289432E-01  1.04028333E+00  1.09805933E+00  1.62447401E+00
  1.63439103E+00
Alpha MO coefficients                      R   N=         676
 -8.16446094E-03 -1.60579336E-03 -1.54942345E-03  2.09210016E-04  3.22758999E-04
  1.68209748E-02  1.22679892E-02  3.25382985E-06 -1.96109898E-04  9.85808901E-01
  1.08985107E-01 -1.10455817E-03  1.12970882E-03  6.91986424E-04 -8.00680082E-02
  8.65189593E-03 -4.99151897E-03  1.01755068E-03  1.25111241E-03  1.20663821E-02
 -5.54626967E-04  2.47005885E-03 -8.91964072E-04  1.56322126E-02 -1.85516590E-03
  1.22727943E-02  9.85822437E-01  1.07040452E-01  2.73911768E-03 -2.61139709E-03
  4.00106796E-03 -7.40744403E-02 -1.27135848E-02  9.12719596E-03 -1.46919179E-02
  8.70392404E-03  2.39285349E-04  1.10366454E-03  1.00684917E-03  1.04601438E-03
  1.83799128E-02 -1.12865015E-02 -9.08594641E-03 -6.01351175E-03  1.50432722E-03
  1.11044425E-02 -2.37592856E-04  1.80489472E-02 -3.83881064E-05  4.42049621E-03
 -1.34893169E-03 -1.07045665E-03 -1.36713399E-01  1.39202838E-01  1.15163682E-01
 -9.74423631E-03  8.71278804E-02  3.00567863E-01  2.62109864E-02 -2.88160282E-02
  6.94132359E-02 -1.74061381E-01  1.76187439E-01 -1.14103338E-01  1.50510949E-02
 -1.54276139E-03  4.39837584E-01 -5.06569925E-02  3.90968433E-02  2.09129873E-02
  1.35391142E-01 -5.69444389E-03  6.10054939E-02 -2.06594467E-02  7.15232190E-02
 -1.32886032E-02  6.88565386E-02  3.70889801E-03  1.30586412E-01 -1.29606560E-01
  1.31974262E-02  8.65432088E-02 -6.65251380E-02 -4.47088477E-01 -3.65764348E-02
  5.92514253E-02 -7.78111439E-02 -1.17211042E-01  1.15136064E-01  2.29600339E-01
  4.88979386E-02  4.68940934E-02  4.52419431E-01  9.17111316E-02  3.24213024E-02
  1.88083189E-02 -2.73621056E-02 -9.72865367E-03 -1.39417862E-01 -6.05403488E-02
  1.64677209E-01  8.12308042E-02  1.40718402E-01  7.50310575E-02  1.82367451E-02
 -1.27800898E-02  9.00750821E-02  1.98579528E-01  2.43097619E-02 -9.97971870E-02
  5.48053972E-03  9.53093923E-02  7.08826392E-03  1.82831224E-02 -1.86651663E-02
 -1.55245941E-01  2.96272489E-01 -6.38596515E-02 -2.24469653E-02 -1.15513774E-01
  2.41457509E-01 -5.96551936E-02  1.43681220E-01  1.16387453E-01 -1.40014152E-01
 -1.30617952E-01  7.82371288E-02  3.32922960E-02 -2.10092045E-01 -1.45292808E-01
 -6.70986462E-02  6.38104079E-02 -7.18206260E-02 -1.14321948E-01 -1.23926583E-01
  2.69536087E-01 -1.15109941E-02 -7.56715137E-02 -7.23686038E-02  2.05284684E-03
  3.13364546E-04  1.68585051E-01  1.68256703E-01 -2.41078103E-01 -5.24955563E-02
  1.46294563E-01  1.30574477E-01 -1.99780185E-01 -1.71138563E-01 -1.69975324E-01
  1.31888526E-01  1.29474754E-01  2.04390837E-01  1.87335123E-01 -1.02401447E-01
 -8.29745047E-02 -8.89754055E-03  1.99619430E-02  3.14315092E-01  5.48569617E-02
 -1.01992852E-01 -1.10833493E-02  1.63382013E-01  2.74357383E-02 -8.81685703E-02
 -4.16294251E-02  4.85626067E-02 -1.72264743E-01 -1.70696781E-01 -2.51680159E-01
  1.88940543E-01 -1.35098402E-01 -1.34146798E-01 -2.21115383E-01 -1.31183592E-01
 -2.27829829E-01 -1.51216765E-01 -1.81937321E-01 -8.52638665E-02 -9.42761735E-02
  3.52978570E-03  4.89420122E-05 -1.11117929E-01  9.13338082E-02 -1.79432991E-01
  3.04555590E-01 -1.93991124E-01  5.71576650E-01 -1.76686370E-01  2.94531219E-01
 -1.93135366E-01  3.78709130E-02 -3.57500412E-02  1.23337896E-01 -7.50750117E-02
  8.15344758E-03 -2.33387824E-01  1.42341357E-01  2.22251216E-03 -9.31880510E-02
  1.71605341E-02  1.54357605E-01 -1.14954367E-01 -1.67916147E-01 -8.04494851E-02
 -1.47277654E-01  1.19812574E-01  2.57000291E-01  9.55409230E-03 -2.30610537E-02
 -7.78902256E-02  1.40852920E-01  3.73901698E-01  6.58571448E-02 -7.82649157E-02
  2.34992440E-01  6.19391521E-01  2.34765884E-02  6.84045992E-03  9.79252291E-02
 -1.20704532E-01 -2.85011543E-01 -3.47450321E-01  2.30649618E-01 -2.40799461E-01
 -4.68565930E-01  1.46995691E-02  7.53597416E-02  3.81457241E-03 -3.57775197E-03
  3.80508029E-02  1.19301053E-01  2.41022198E-02  6.97935683E-02  8.07903622E-02
 -6.03402201E-02  3.10117642E-02 -1.19440153E-01 -1.82100644E-01 -7.12659257E-01
  7.07911960E-02 -1.98893522E-01 -4.47695530E-01  4.90069859E-02 -4.43833253E-02
  1.06010429E-01 -8.74964929E-02 -1.89949533E-01 -4.78357774E-01  2.31837901E-01
 -3.19390111E-01 -4.74358352E-01  2.16737512E-01  1.53302126E+00  3.55346282E-03
  2.66989399E-01 -4.93797437E-02  2.55941752E-02 -3.43413910E-02  8.51180330E-03
  3.76077855E-02 -7.92538517E-03  1.32403832E-01  1.19982541E-01 -1.76924974E-02
 -6.42937780E-01  2.49011781E-01  3.56771599E-01 -1.29964538E-01  1.11274779E-01
 -6.95434117E-02 -1.81239514E-01  1.22948484E-01 -3.90740281E-02 -1.34222936E+00
 -6.73763674E-01  3.03726448E-01 -1.40878642E-01 -4.16240584E-02 -1.31810204E-01
  5.89065645E-02  8.41869197E-01  2.94321601E-02  6.30682568E-01  9.11101231E-02
  1.42416653E+00 -6.98545046E-02  3.09049330E-02 -1.38030268E-02 -1.42097470E-01
  3.01628541E-02  8.68706367E-01  5.52983929E-02 -3.15573102E-01  8.53803526E-02
  1.01376614E-01 -5.29082707E-02 -9.79451023E-02 -2.23168471E-01  8.98512459E-02
 -1.34433486E+00 -1.67688968E-01 -7.49831499E-01  3.18651076E-01 -1.26597901E-02
  2.03982974E-01 -9.53433598E-02 -9.43186033E-01  1.01774499E-01  1.60840494E+00
 -1.71529138E-02 -1.45321781E-01 -8.49334893E-02  3.61029505E-02  2.21355706E-02
 -2.44213333E-01  8.63754340E-02  1.32733277E+00  1.72127827E-01 -8.62535966E-01
  4.33777666E-01  5.51447161E-02 -1.94910082E-02  3.39341820E-02  2.62101926E-01
 -1.15456825E-01 -7.95014944E-01  4.66222877E-01  1.06108392E+00 -2.98749587E-01
  6.27123880E-02  7.25833929E-02  2.34496996E-03 -1.27354710E+00 -1.77833899E-02
 -9.28374854E-01  4.14909081E-02  1.19700376E+00 -9.33791475E-02  2.07901225E-02
  3.28049518E-01  1.25194715E-01  3.78113094E-02  1.80829235E+00  1.70229915E+00
  3.98710794E-01  4.30114253E-01  8.87075264E-02 -2.51513742E-02  2.47218499E-01
 -4.09338305E-02  1.12388547E-01 -1.58106845E+00  1.85229020E+00 -1.37390027E-01
  7.74290471E-01 -1.01741230E-02  9.64145451E-02  5.94266317E-02  4.87640774E-01
 -7.09434027E-02 -1.38270381E-01 -1.50143218E-02 -7.47406742E-01  1.47799652E-02
  4.47895608E-02  4.46573294E-01  1.99724651E-01  5.88302977E-02  3.51281183E-01
 -5.26877664E-01 -3.71740197E-01 -1.21736020E-01 -5.13448348E-03  5.19493241E-02
 -5.34219633E-01 -7.80513660E-02 -5.03447495E-01  2.45397703E-01  1.02403578E+00
  6.40353457E-02  5.82177970E-01 -2.97640382E-01  5.06149019E-01 -2.69327951E-01
  1.92395468E-02 -5.79187153E-02 -2.63046702E-01 -2.89335260E-01 -1.90399678E-01
  3.84095136E-02 -1.09830195E-01 -4.81626183E-02  2.44794485E-02  2.29293349E-01
  3.32935387E-01  3.92890832E-02 -7.28785075E-02 -6.18009160E-02 -9.41643308E-03
 -1.13965434E-02 -6.44393888E-01  1.13619907E-01  6.63605556E-01  1.34118270E-02
  1.15411093E+00  1.19411165E-02 -7.32953061E-01  2.35791595E-01  2.16938538E-01
  3.63090204E-02  3.62534893E-02 -4.17355802E-01 -1.00744077E-01 -1.38878547E-01
 -6.16236773E-02  4.23277875E-02  3.13560418E-02  2.61233096E-01 -4.96641825E-01
  1.64391347E-01 -3.92135905E-01 -3.64476458E-01  4.61980716E-01 -2.58643877E-01
 -5.14071857E-03  7.70557324E-02 -8.31328489E-02 -5.50017084E-01 -1.48390427E-01
  3.55239475E-01 -1.32025356E-01  9.31171856E-01 -5.08469904E-02  1.28915338E-02
 -1.74905942E-01  4.01711300E-01  2.87834002E-02 -2.97861044E-01 -1.40603808E-01
  4.86741994E-01 -4.15063349E-03  1.00342185E-02 -1.66281110E-02 -7.26864263E-01
  3.63065374E-01  3.63583845E-01  3.31319677E-01  9.04337418E-01 -3.33526515E-01
 -4.12946759E-01 -3.38425389E-02 -4.64898201E-02 -1.00074221E-01 -2.95447461E-01
 -4.33610656E-01 -1.68325663E-01  2.35647223E-01  4.92225402E-01  6.19537673E-01
  1.17466678E-01 -2.20108036E-01  2.01950958E-01 -4.64862257E-02 -2.97296077E-01
  2.67840620E-02 -1.79888214E-01  1.04441343E-01 -4.65340264E-03  2.33043379E-02
 -2.16891500E-01  8.33864444E-03 -9.40748054E-01  6.91045566E-01  3.87074985E-01
  7.68129633E-02  1.11169894E+00 -2.42143641E-02  5.97442301E-02 -3.65185699E-01
 -1.75396453E-01 -1.54518970E-01 -2.30799919E-01  6.55690453E-01  2.83581728E-01
  1.30014191E-01  3.38663363E-01 -7.26066675E-01  2.04394773E-01 -1.77736872E-01
 -8.95862592E-02 -8.99487638E-02 -4.24817833E-02 -2.76293709E-02  9.59393502E-03
 -8.54757362E-03 -3.55137457E-01 -5.48747372E-01 -1.07346634E-01 -1.56103810E-01
  6.22837939E-01  1.01896498E+00  3.09289826E-02 -6.34014324E-02  9.55439438E-02
 -7.49971943E-02  3.14832623E-01 -5.66830304E-02 -3.84795064E-01  2.40400689E-01
 -7.56812215E-01  2.77763006E-01 -8.30266894E-01  7.26304168E-01  1.49444435E-01
  3.64787275E-01 -2.69907048E-01  3.30201628E-01 -3.51379614E-01 -1.61119183E-01
 -1.40599999E-02  1.90236557E-01 -6.72244207E-02  5.16624348E-01 -1.43553316E-01
 -3.48679491E-01 -1.40225887E-01 -1.03082453E+00  1.66713360E-01 -2.04660424E-03
  1.40139641E-01 -1.33077855E-01 -3.65300127E-01  3.82212944E-01 -2.67050395E-01
 -1.10632695E-01  9.91305129E-01 -8.64541277E-01 -8.05753254E-01  1.24792784E+00
  2.82505497E-01 -6.82276623E-01  2.90833634E-01 -7.73256309E-01  3.05660706E-01
  4.76315768E-01 -2.04555570E-02 -9.41151929E-03  1.21967453E-01 -1.17336451E-01
 -5.10616040E-02 -2.17549628E-01 -3.35937724E-01 -1.81450984E-01  2.21104652E-01
 -3.97428144E-02  2.22794435E-02  3.88533403E-01 -7.08261635E-01  3.21306761E-01
  1.10667827E-01 -6.02565936E-01  1.33617487E+00 -5.62577095E-01  1.42739103E-03
 -4.25240741E-01 -2.64893959E-01  7.76016758E-02 -4.76137020E-02 -5.61132675E-01
 -9.31698739E-01  1.67058927E+00  1.63245359E-02 -3.08077113E-02  3.99017838E-01
  4.34944195E-01 -1.30574787E-01 -3.55146157E-01 -1.02936297E+00 -6.98491710E-01
  4.99860153E-02 -4.42142163E-02  8.98358932E-02  4.75218595E-01  3.03829797E-01
 -2.37248890E-02  2.95156165E-01 -1.10501629E+00 -2.59642502E-01 -2.08950854E-01
 -5.30400923E-02 -6.95249795E-02  5.53992553E-01 -1.14268249E+00 -8.70550615E-01
  1.22246422E+00 -1.26760140E-01  2.70606489E-01  6.26134240E-02 -3.11355726E-01
  1.83527967E-01  5.06482338E-02  1.08856425E-01  3.31198839E-01 -1.03899669E-01
  4.68197295E-01 -3.81472461E-01  1.28096077E-02 -9.01677978E-02 -1.32732575E-01
  2.10426767E-02 -1.28711531E-02  2.02467496E-01  1.42356728E-01 -8.09073985E-01
  2.92345150E-01  1.54822280E-01  7.79681100E-02  9.78846102E-01 -7.10584930E-01
  7.03698658E-01 -3.01775711E-01 -4.96413402E-01 -5.82861784E-03  4.30149293E-03
  6.05736546E-01  2.58656407E-02 -4.34120166E-02 -6.09698421E-02 -2.13825374E+00
 -1.02676019E+00  1.50067392E-01 -2.12963086E-01 -1.44280704E-02 -1.88969743E+00
  1.29020228E-02 -3.92272522E-02  1.24442527E-03  4.16685790E+00 -7.80572304E-01
  1.41818579E-01 -2.55484127E-01 -1.75537290E-01 -3.79207316E-01  1.47145742E-01
  7.42075464E-02 -1.42873940E-01 -6.65102669E-01 -6.38491349E-02 -5.51076234E-01
 -8.09448056E-03 -1.80228497E+00 -7.19364348E-02  8.69418650E-02 -1.98823530E-01
  3.15617149E+00  5.02295501E-01 -6.64150769E-01  9.17594561E-01 -1.83026036E-03
 -5.67662525E-01  7.77190654E-02 -1.32202135E-01 -2.49203199E-02  1.47801390E-02
  4.41846250E-01  8.97454924E-01  2.11984533E-01 -3.01502670E-01 -6.66014473E-01
 -2.55323785E-01 -8.84113475E-01 -1.04307206E-01 -5.22713568E-01  1.99183089E-01
 -3.34111638E-02
Total SCF Density                          R   N=         351
  2.04983414E+00  1.09478292E-01  1.21221940E-01  2.45905082E-02 -2.46341331E-03
  3.15417295E-01 -2.59598665E-02  1.24512501E-02 -2.25894398E-02  3.11716541E-01
  2.91297877E-02 -1.35882199E-02  4.60143391E-02 -1.04595648E-01  1.52033669E-01
 -5.11912390E-01  3.24574356E-01 -2.11811478E-01  1.62825955E-01 -1.79879181E-01
  1.41086201E+00 -3.88326470E-03 -1.33439155E-02  1.73718380E-01 -9.16579597E-02
  4.76831809E-02 -1.62142001E-01  1.20822570E-01 -1.09629683E-02  2.13759269E-02
 -6.54339448E-02  2.48336688E-01 -1.09311799E-01  2.04614873E-01 -9.84044931E-02
  2.13471636E-01 -1.38048625E-02 -1.18664475E-02  3.94104329E-02 -1.22696582E-01
  1.33530394E-01 -1.45781902E-01  5.08818700E-02 -1.19792553E-01  1.22902174E-01
  1.07604446E-02 -1.43292563E-02 -8.29533175E-02  8.76378013E-03 -1.98515517E-02
  7.37204254E-02 -3.41625198E-03  1.95054597E-02 -1.38916289E-02  2.03887288E+00
 -1.30538506E-02  1.48335260E-02  8.32332197E-02 -7.39322780E-03  1.84342017E-02
 -3.14582917E-02  3.17713299E-02 -1.85046768E-02  1.14278062E-02  1.19123580E-01
  1.20322033E-01  4.07276933E-02 -4.99071787E-02 -2.24947327E-01 -2.01844984E-03
 -1.12469125E-01 -7.41720028E-03 -1.28289608E-01  4.18987808E-02 -9.54700157E-02
  2.43982438E-03 -7.22570358E-03  3.26295851E-01  1.85705626E-02 -1.49011306E-02
 -4.63989995E-02  2.29050516E-02  3.27747878E-02 -8.52570957E-02 -3.26601419E-02
 -1.76341246E-02  3.33964251E-02  5.59257783E-03 -5.35540613E-03  2.40507466E-02
  3.06962377E-01  4.74098894E-02 -5.00563676E-02 -1.37129297E-01  1.52537595E-02
  9.83236166E-02 -1.45303624E-01 -8.37920324E-02  2.09705638E-02  6.76758351E-02
  9.17385801E-03 -1.23885446E-02  4.91527166E-02 -2.97247053E-02  2.55618194E-01
  9.01733370E-02 -3.18427725E-02  3.19622365E-01 -4.87355523E-02  8.04740876E-02
 -4.40362407E-01  1.32703855E-01 -9.48472903E-02  5.42593758E-02 -4.51162660E-01
  2.77566846E-01 -2.58021596E-02 -3.08525881E-03 -2.97309247E-02  9.96634407E-01
 -3.76656058E-02  1.91035391E-03 -1.87167795E-01  9.47658207E-03 -9.06577675E-02
  1.57137346E-01 -1.07944206E-01  4.58566663E-02 -7.49478656E-02  3.14035635E-02
 -1.37463052E-02  2.20479843E-01  1.29730464E-02  2.32869136E-02 -9.10446441E-02
  1.68874948E-01 -2.68780270E-02  6.09430279E-03 -5.05570604E-02  5.75730794E-02
  8.30124319E-03  2.34000469E-02 -4.51927918E-02  2.16360602E-02  7.97175251E-03
 -1.05077663E-02 -1.96968352E-03  2.17776754E-02  2.36795636E-01 -2.33414778E-02
 -1.20841878E-02  2.14045393E-02  1.92077799E-01  3.65995448E-02 -5.01652518E-02
 -8.23308205E-02 -5.61556650E-02  1.28969723E-01 -2.00737222E-01 -3.54786936E-02
 -4.72487561E-02  1.03209177E-01 -1.43785670E-03 -7.92024448E-04  8.20486888E-03
 -1.06384467E-02  2.15413776E-01  1.86270232E-02 -9.97143714E-03 -1.91171947E-02
  2.03750387E-01 -1.44926110E-02  1.74882632E-02 -7.69111468E-03  8.48721832E-02
  9.67506094E-02  7.26527009E-03 -3.43237587E-02  4.51814677E-02  6.63202803E-02
 -2.14523484E-02  2.22419927E-02 -9.63462581E-02  7.11612687E-02  1.27497988E-01
  4.81325753E-02 -6.16850513E-02  6.87378347E-02  1.10670682E-01  1.73039187E-01
  1.75188803E-02 -2.29206410E-03 -1.54776646E-01  1.52487120E-01  3.47724012E-02
  7.06822223E-02 -1.23376589E-01  1.25713216E-01  7.19519133E-03  6.24647368E-02
 -3.92273036E-02  1.99523826E-02  6.52954511E-02  1.83432389E-01 -1.60858336E-01
  2.76308029E-02  7.22294294E-02  1.25300830E-01  1.55750877E-01  2.37132661E-01
 -4.81200769E-02  4.64490389E-02 -8.76026787E-02 -1.97693203E-01  6.51277863E-02
  1.32338345E-01  2.77762595E-05 -1.42704150E-01  8.01674510E-02  9.65255883E-03
 -1.18865308E-02  3.37423632E-02  1.85025810E-02  1.52683614E-02 -8.34509932E-02
  4.73117566E-02  2.62701018E-03  4.96140790E-02 -2.55016368E-02 -4.20129028E-02
  1.92477874E-01  4.37984574E-02 -4.27704755E-03 -1.02505827E-01 -2.13889698E-01
  6.84206932E-02 -5.29302826E-02 -1.57869968E-03 -1.59043670E-01  8.23739098E-02
  2.47532159E-02 -2.13811135E-02  8.24215907E-02  4.69972573E-02  3.75241669E-02
 -7.07861810E-02  6.00392739E-02  1.29073780E-02  7.22514614E-02 -4.21003248E-02
 -4.14826826E-02  1.78707343E-01  1.99091189E-01  1.82126462E-02 -1.67941869E-02
 -1.91704419E-02 -4.69081099E-02 -7.69738032E-03 -9.97900775E-02 -1.15985607E-02
 -5.26960038E-02  1.93998968E-03 -6.05565307E-02  5.76074701E-02  1.13453158E-01
  1.74582967E-01 -5.17113610E-02  1.92425627E-01  6.48076469E-02  1.29956853E-01
 -2.91160362E-02 -1.75135248E-02 -4.12969557E-02  3.90974308E-02  6.76311698E-02
  1.87747320E-01  4.37915782E-02 -3.14693983E-02 -2.82642265E-02 -1.15360193E-01
  1.84812271E-02 -1.52680909E-01  1.09222085E-02 -1.03461808E-01  3.22488890E-02
  1.51622329E-02  1.76804593E-02  8.92869169E-02  1.44655228E-01 -4.18332432E-02
  7.14276453E-02  4.70830726E-02  9.36305083E-02 -7.20447925E-03 -4.28645192E-02
 -5.93978559E-02  7.81737700E-02  1.14528880E-01  1.46386688E-01  1.47640934E-01
 -5.31497801E-03 -3.26059285E-03 -4.43446261E-02  3.63607572E-02 -3.87751955E-02
  3.93197205E-02 -4.78260195E-02  5.89035784E-02 -4.73590442E-02 -5.99609582E-02
  5.58166738E-02  1.07949499E-01 -1.62315849E-01  8.93631957E-02  1.53737705E-01
  7.05634375E-02 -1.14061357E-01  5.02763360E-02 -1.12011673E-02  1.76899364E-02
 -2.76262801E-02 -3.30957668E-02 -3.84141550E-02 -6.73512509E-02  1.87080778E-01
 -3.50089334E-02  2.13869850E-02 -1.03663058E-01  1.30739682E-01 -9.55573568E-02
  2.13770002E-01 -9.54491981E-02  1.44912160E-01 -1.00465541E-01  1.91066529E-02
  8.26011286E-03  1.14093046E-01 -1.45144917E-01  6.97699386E-02 -3.55596562E-02
  9.60626520E-02 -8.56513883E-02  5.58330401E-03 -7.61795985E-03  7.24745750E-02
 -6.07840029E-02 -7.90733876E-02 -7.27919258E-02 -1.04007036E-01  1.61211840E-01
  1.99678206E-01
Mulliken Charges                           R   N=           6
 -3.07826668E-01 -5.15147091E-01  2.30600340E-01  1.58455447E-01  2.39180451E-01
  1.94737523E-01
ONIOM Charges                              I   N=          16
           0           0           0           0           0           0
           0           0           0           0           0           0
           0           0           0           0
ONIOM Multiplicities                       I   N=          16
           1           0           0           0           0           0
           0           0           0           0           0           0
           0           0           0           0
Atom Layers                                I   N=           6
           1           1           1           1           1           1
Atom Modifiers                             I   N=           6
           0           0           0           0           0           0
Force Field                                I                0
Int Atom Modified Types                    I   N=           6
           0           0           0           0           0           0
Link Atoms                                 I   N=           6
           0           0           0           0           0           0
Atom Modified MM Charges                   R   N=           6
  0.00000000E+00  0.00000000E+00  0.00000000E+00  0.00000000E+00  0.00000000E+00
  0.00000000E+00
Link Distances                             R   N=          24