 Entering Gaussian System, Link 0=/Johnny/gnovikov/gauss/g09/g09
 Initial command:
 /Johnny/gnovikov/gauss/g09/l1.exe "/Johnny/gnovikov/gauss/scr/Gau-16806.inp" -scrdir="/Johnny/gnovikov/gauss/scr/"
 Entering Link 1 = /Johnny/gnovikov/gauss/g09/l1.exe PID=     16809.
  
 Copyright (c) 1988,1990,1992,1993,1995,1998,2003,2009,2013,
            Gaussian, Inc.  All Rights Reserved.
  
 This is part of the Gaussian(R) 09 program.  It is based on
 the Gaussian(R) 03 system (copyright 2003, Gaussian, Inc.),
 the Gaussian(R) 98 system (copyright 1998, Gaussian, Inc.),
 the Gaussian(R) 94 system (copyright 1995, Gaussian, Inc.),
 the Gaussian 92(TM) system (copyright 1992, Gaussian, Inc.),
 the Gaussian 90(TM) system (copyright 1990, Gaussian, Inc.),
 the Gaussian 88(TM) system (copyright 1988, Gaussian, Inc.),
 the Gaussian 86(TM) system (copyright 1986, Carnegie Mellon
 University), and the Gaussian 82(TM) system (copyright 1983,
 Carnegie Mellon University). Gaussian is a federally registered
 trademark of Gaussian, Inc.
  
 This software contains proprietary and confidential information,
 including trade secrets, belonging to Gaussian, Inc.
  
 This software is provided under written license and may be
 used, copied, transmitted, or stored only in accord with that
 written license.
  
 The following legend is applicable only to US Government
 contracts under FAR:
  
                    RESTRICTED RIGHTS LEGEND
  
 Use, reproduction and disclosure by the US Government is
 subject to restrictions as set forth in subparagraphs (a)
 and (c) of the Commercial Computer Software - Restricted
 Rights clause in FAR 52.227-19.
  
 Gaussian, Inc.
 340 Quinnipiac St., Bldg. 40, Wallingford CT 06492
  
  
 ---------------------------------------------------------------
 Warning -- This program may not be used in any manner that
 competes with the business of Gaussian, Inc. or will provide
 assistance to any competitor of Gaussian, Inc.  The licensee
 of this program is prohibited from giving any competitor of
 Gaussian, Inc. access to this program.  By using this program,
 the user acknowledges that Gaussian, Inc. is engaged in the
 business of creating and licensing software in the field of
 computational chemistry and represents and warrants to the
 licensee that it is not a competitor of Gaussian, Inc. and that
 it will not use this program in any manner prohibited above.
 ---------------------------------------------------------------
  

 Cite this work as:
 Gaussian 09, Revision D.01,
 M. J. Frisch, G. W. Trucks, H. B. Schlegel, G. E. Scuseria, 
 M. A. Robb, J. R. Cheeseman, G. Scalmani, V. Barone, B. Mennucci, 
 G. A. Petersson, H. Nakatsuji, M. Caricato, X. Li, H. P. Hratchian, 
 A. F. Izmaylov, J. Bloino, G. Zheng, J. L. Sonnenberg, M. Hada, 
 M. Ehara, K. Toyota, R. Fukuda, J. Hasegawa, M. Ishida, T. Nakajima, 
 Y. Honda, O. Kitao, H. Nakai, T. Vreven, J. A. Montgomery, Jr., 
 J. E. Peralta, F. Ogliaro, M. Bearpark, J. J. Heyd, E. Brothers, 
 K. N. Kudin, V. N. Staroverov, T. Keith, R. Kobayashi, J. Normand, 
 K. Raghavachari, A. Rendell, J. C. Burant, S. S. Iyengar, J. Tomasi, 
 M. Cossi, N. Rega, J. M. Millam, M. Klene, J. E. Knox, J. B. Cross, 
 V. Bakken, C. Adamo, J. Jaramillo, R. Gomperts, R. E. Stratmann, 
 O. Yazyev, A. J. Austin, R. Cammi, C. Pomelli, J. W. Ochterski, 
 R. L. Martin, K. Morokuma, V. G. Zakrzewski, G. A. Voth, 
 P. Salvador, J. J. Dannenberg, S. Dapprich, A. D. Daniels, 
 O. Farkas, J. B. Foresman, J. V. Ortiz, J. Cioslowski, 
 and D. J. Fox, Gaussian, Inc., Wallingford CT, 2013.
 
 ******************************************
 Gaussian 09:  AM64L-G09RevD.01 24-Apr-2013
                13-Oct-2017 
 ******************************************
 %RWF=./tmp/195561348079008353/rwf
 %Int=./tmp/195561348079008353/int
 %D2E=./tmp/195561348079008353/d2e
 %Scr=./tmp/195561348079008353/skr
 %NoSave
 %chk=./tmp/195561348079008353/chk
 %nproc=1
 Will use up to    1 processors via shared memory.
 %mem=1000mb
 ------------------------
 # B3lyp/3-21g nosym freq
 ------------------------
 1/10=4,30=1,38=1/1,3;
 2/12=2,15=1,17=6,18=5,40=1/2;
 3/5=5,11=2,16=1,25=1,30=1,71=2,74=-5,140=1/1,2,3;
 4//1;
 5/5=2,38=5,98=1/2;
 8/6=4,10=90,11=11/1;
 11/6=1,8=1,9=11,15=111,16=1,31=1/1,2,10;
 10/6=1,31=1/2;
 6/7=2,8=2,9=2,10=2,18=1,28=1/1;
 7/8=1,10=1,25=1,30=1/1,2,3,16;
 1/10=4,30=1/3;
 99//99;


 Symbolic Z-matrix:
 Charge =  0 Multiplicity = 1
 6                    -0.85289  -0.0037   -0.53033 
 6                     0.47281   0.0807   -0.03891 
 1                    -0.45602   0.66437   0.61789 
 1                    -1.28095  -0.96959  -0.18618 
 1                     1.07101   0.95777  -0.29276 
 1                     1.04605  -0.72954   0.43028 
 

 GradGradGradGradGradGradGradGradGradGradGradGradGradGradGradGradGradGrad
 Berny optimization.
 Initialization pass.
 Trust Radius=3.00D-01 FncErr=1.00D-07 GrdErr=1.00D-07
 Number of steps in this run=      2 maximum allowed number of steps=      2.
 GradGradGradGradGradGradGradGradGradGradGradGradGradGradGradGradGradGrad

                          Input orientation:                          
 ---------------------------------------------------------------------
 Center     Atomic      Atomic             Coordinates (Angstroms)
 Number     Number       Type             X           Y           Z
 ---------------------------------------------------------------------
      1          6           0       -0.852893   -0.003704   -0.530329
      2          6           0        0.472808    0.080701   -0.038910
      3          1           0       -0.456022    0.664368    0.617889
      4          1           0       -1.280948   -0.969593   -0.186176
      5          1           0        1.071008    0.957767   -0.292756
      6          1           0        1.046048   -0.729539    0.430280
 ---------------------------------------------------------------------
                    Distance matrix (angstroms):
                    1          2          3          4          5
     1  C    0.000000
     2  C    1.416369   0.000000
     3  H    1.386445   1.278585   0.000000
     4  H    1.111131   2.049504   1.999213   0.000000
     5  H    2.163854   1.091570   1.801993   3.042659   0.000000
     6  H    2.248462   1.097830   2.057763   2.419205   1.835867
                    6
     6  H    0.000000
 Symmetry turned off by external request.
 Stoichiometry    C2H4
 Framework group  C1[X(C2H4)]
 Deg. of freedom    12
 Full point group                 C1      NOp   1
 Rotational constants (GHZ):    127.7127605     28.4992657     26.1556385
 Standard basis: 3-21G (6D, 7F)
    26 basis functions,    42 primitive gaussians,    26 cartesian basis functions
     8 alpha electrons        8 beta electrons
       nuclear repulsion energy        32.8068599387 Hartrees.
 NAtoms=    6 NActive=    6 NUniq=    6 SFac= 1.00D+00 NAtFMM=   60 NAOKFM=F Big=F
 Integral buffers will be    131072 words long.
 Raffenetti 2 integral format.
 Two-electron integral symmetry is turned off.
 One-electron integrals computed using PRISM.
 NBasis=    26 RedAO= T EigKep=  2.02D-02  NBF=    26
 NBsUse=    26 1.00D-06 EigRej= -1.00D+00 NBFU=    26
 ExpMin= 1.83D-01 ExpMax= 1.72D+02 ExpMxC= 1.72D+02 IAcc=1 IRadAn=         1 AccDes= 0.00D+00
 Harris functional with IExCor=  402 and IRadAn=       1 diagonalized for initial guess.
 HarFok:  IExCor=  402 AccDes= 0.00D+00 IRadAn=         1 IDoV= 1 UseB2=F ITyADJ=14
 ICtDFT=  3500011 ScaDFX=  1.000000  1.000000  1.000000  1.000000
 FoFCou: FMM=F IPFlag=           0 FMFlag=      100000 FMFlg1=           0
         NFxFlg=           0 DoJE=T BraDBF=F KetDBF=T FulRan=T
         wScrn=  0.000000 ICntrl=     500 IOpCl=  0 I1Cent=   200000004 NGrid=           0
         NMat0=    1 NMatS0=      1 NMatT0=    0 NMatD0=    1 NMtDS0=    0 NMtDT0=    0
 Symmetry not used in FoFCou.
 Keep R1 ints in memory in canonical form, NReq=942464.
 Requested convergence on RMS density matrix=1.00D-08 within 128 cycles.
 Requested convergence on MAX density matrix=1.00D-06.
 Requested convergence on             energy=1.00D-06.
 No special actions if energy rises.
 Integral accuracy reduced to 1.0D-05 until final iterations.
 Initial convergence to 1.0D-05 achieved.  Increase integral accuracy.
 SCF Done:  E(RB3LYP) =  -78.0179233448     A.U. after   13 cycles
            NFock= 13  Conv=0.32D-08     -V/T= 2.0083
 DoSCS=F DFT=T ScalE2(SS,OS)=  1.000000  1.000000
 Range of M.O.s used for correlation:     1    26
 NBasis=    26 NAE=     8 NBE=     8 NFC=     0 NFV=     0
 NROrb=     26 NOA=     8 NOB=     8 NVA=    18 NVB=    18
 Symmetrizing basis deriv contribution to polar:
 IMax=3 JMax=2 DiffMx= 0.00D+00
 G2DrvN: will do     7 centers at a time, making    1 passes.
 Calling FoFCou, ICntrl=  3107 FMM=F I1Cent=   0 AccDes= 0.00D+00.
 End of G2Drv F.D. properties file   721 does not exist.
 End of G2Drv F.D. properties file   722 does not exist.
 End of G2Drv F.D. properties file   788 does not exist.
          IDoAtm=111111
          Differentiating once with respect to electric field.
                with respect to dipole field.
          Differentiating once with respect to nuclear coordinates.
 Keep R1 ints in memory in canonical form, NReq=921677.
          There are    21 degrees of freedom in the 1st order CPHF.  IDoFFX=6 NUNeed=     3.
     18 vectors produced by pass  0 Test12= 6.86D-16 4.76D-09 XBig12= 2.30D+01 2.56D+00.
 AX will form    18 AO Fock derivatives at one time.
     18 vectors produced by pass  1 Test12= 6.86D-16 4.76D-09 XBig12= 1.60D+00 4.26D-01.
     18 vectors produced by pass  2 Test12= 6.86D-16 4.76D-09 XBig12= 1.04D-02 3.84D-02.
     18 vectors produced by pass  3 Test12= 6.86D-16 4.76D-09 XBig12= 1.38D-05 1.06D-03.
     17 vectors produced by pass  4 Test12= 6.86D-16 4.76D-09 XBig12= 4.12D-09 2.05D-05.
      3 vectors produced by pass  5 Test12= 6.86D-16 4.76D-09 XBig12= 1.17D-12 2.83D-07.
 InvSVY:  IOpt=1 It=  1 EMax= 8.88D-16
 Solved reduced A of dimension    92 with    21 vectors.
 Isotropic polarizability for W=    0.000000       21.20 Bohr**3.
 End of Minotr F.D. properties file   721 does not exist.
 End of Minotr F.D. properties file   722 does not exist.
 End of Minotr F.D. properties file   788 does not exist.

 **********************************************************************

            Population analysis using the SCF density.

 **********************************************************************

 Alpha  occ. eigenvalues --  -10.17217 -10.13363  -0.82249  -0.58235  -0.48823
 Alpha  occ. eigenvalues --   -0.41332  -0.37223  -0.19961
 Alpha virt. eigenvalues --   -0.02533   0.07674   0.12558   0.15227   0.21111
 Alpha virt. eigenvalues --    0.31918   0.68483   0.71768   0.72044   0.77308
 Alpha virt. eigenvalues --    0.77895   0.84935   0.93288   0.99429   1.04028
 Alpha virt. eigenvalues --    1.09806   1.62447   1.63439
          Condensed to atoms (all electrons):
               1          2          3          4          5          6
     1  C    5.757589   0.221141   0.112980   0.310381  -0.059513  -0.034752
     2  C    0.221141   5.626624   0.073916  -0.065628   0.369184   0.289909
     3  H    0.112980   0.073916   0.611370  -0.017571  -0.030082   0.018786
     4  H    0.310381  -0.065628  -0.017571   0.622423   0.006187  -0.014248
     5  H   -0.059513   0.369184  -0.030082   0.006187   0.524490  -0.049446
     6  H   -0.034752   0.289909   0.018786  -0.014248  -0.049446   0.595012
 Mulliken charges:
               1
     1  C   -0.307827
     2  C   -0.515147
     3  H    0.230600
     4  H    0.158455
     5  H    0.239180
     6  H    0.194738
 Sum of Mulliken charges =   0.00000
 Mulliken charges with hydrogens summed into heavy atoms:
               1
     1  C   -0.149371
     2  C    0.149371
 APT charges:
               1
     1  C   -0.149474
     2  C    0.109611
     3  H    0.041802
     4  H   -0.006434
     5  H    0.010201
     6  H   -0.005705
 Sum of APT charges =   0.00000
 APT charges with hydrogens summed into heavy atoms:
               1
     1  C   -0.155908
     2  C    0.155908
 Electronic spatial extent (au):  <R**2>=             86.7930
 Charge=              0.0000 electrons
 Dipole moment (field-independent basis, Debye):
    X=              1.7030    Y=             -0.7080    Z=              1.7391  Tot=              2.5349
 Quadrupole moment (field-independent basis, Debye-Ang):
   XX=            -15.5879   YY=            -13.5803   ZZ=            -15.2833
   XY=              1.7229   XZ=             -1.9389   YZ=              1.1093
 Traceless Quadrupole moment (field-independent basis, Debye-Ang):
   XX=             -0.7707   YY=              1.2368   ZZ=             -0.4661
   XY=              1.7229   XZ=             -1.9389   YZ=              1.1093
 Octapole moment (field-independent basis, Debye-Ang**2):
  XXX=             10.9160  YYY=             -1.6870  ZZZ=              9.8439  XYY=              3.2946
  XXY=             -2.4038  XXZ=              5.2240  XZZ=              3.5785  YZZ=             -1.5303
  YYZ=              3.3530  XYZ=             -1.8529
 Hexadecapole moment (field-independent basis, Debye-Ang**3):
 XXXX=            -70.2258 YYYY=            -26.2559 ZZZZ=            -28.7585 XXXY=              0.6886
 XXXZ=            -11.5006 YYYX=             -1.1440 YYYZ=              0.5275 ZZZX=             -9.7664
 ZZZY=              1.7305 XXYY=            -14.8811 XXZZ=            -17.4869 YYZZ=             -9.2363
 XXYZ=              1.1779 YYXZ=             -3.3994 ZZXY=              0.0963
 N-N= 3.280685993870D+01 E-N=-2.455534242389D+02  KE= 7.737200789724D+01
  Exact polarizability:  27.089   2.127  19.785   3.631  -0.180  16.732
 Approx polarizability:  39.906   2.301  25.717   7.878   0.970  25.823
 Calling FoFJK, ICntrl=    100127 FMM=F ISym2X=0 I1Cent= 0 IOpClX= 0 NMat=1 NMatS=1 NMatT=0.
 Full mass-weighted force constant matrix:
 Low frequencies ----1200.2667  -22.4106    0.0003    0.0007    0.0011   21.2817
 Low frequencies ---   48.0438  983.7268 1080.4472
 ******    1 imaginary frequencies (negative Signs) ****** 
 Diagonal vibrational polarizability:
        1.7847293       0.5531600       1.5531391
 Harmonic frequencies (cm**-1), IR intensities (KM/Mole), Raman scattering
 activities (A**4/AMU), depolarization ratios for plane and unpolarized
 incident light, reduced masses (AMU), force constants (mDyne/A),
 and normal coordinates:
                      1                      2                      3
                      A                      A                      A
 Frequencies --  -1200.2663               983.7259              1080.4471
 Red. masses --      1.1696                 1.0868                 1.3008
 Frc consts  --      0.9927                 0.6196                 0.8947
 IR Inten    --     10.2154                38.4921                39.1046
  Atom  AN      X      Y      Z        X      Y      Z        X      Y      Z
     1   6     0.04   0.02   0.09     0.05   0.00   0.00     0.07  -0.04  -0.01
     2   6     0.02  -0.05  -0.05    -0.01  -0.05   0.05    -0.08   0.06   0.09
     3   1    -0.77   0.25  -0.48     0.04   0.03   0.04     0.07   0.38  -0.05
     4   1    -0.02   0.03  -0.08    -0.55   0.19  -0.27     0.06  -0.02   0.02
     5   1    -0.07   0.09   0.21    -0.39   0.11  -0.34     0.10  -0.17  -0.24
     6   1     0.06  -0.06  -0.11     0.49   0.22  -0.07    -0.05  -0.40  -0.75
                      4                      5                      6
                      A                      A                      A
 Frequencies --   1162.4178              1242.0438              1309.4200
 Red. masses --      1.0967                 2.9168                 1.2632
 Frc consts  --      0.8731                 2.6512                 1.2761
 IR Inten    --     14.8046                13.3869                24.3653
  Atom  AN      X      Y      Z        X      Y      Z        X      Y      Z
     1   6    -0.05   0.03   0.06     0.28  -0.03   0.15     0.06   0.10  -0.03
     2   6     0.02   0.00   0.02    -0.21   0.05  -0.16    -0.06  -0.07   0.03
     3   1     0.08   0.22  -0.12     0.05  -0.24   0.27    -0.29  -0.28   0.10
     4   1     0.27  -0.38  -0.69    -0.24   0.11  -0.32     0.59  -0.06   0.32
     5   1     0.09  -0.17  -0.38    -0.04  -0.05  -0.08    -0.31  -0.07  -0.49
     6   1    -0.07   0.05   0.20    -0.65   0.01   0.31     0.09   0.06   0.03
                      7                      8                      9
                      A                      A                      A
 Frequencies --   1425.4136              1590.9658              2019.7888
 Red. masses --      1.2401                 1.1162                 1.0607
 Frc consts  --      1.4845                 1.6647                 2.5495
 IR Inten    --     19.0704                 0.6190                 8.6986
  Atom  AN      X      Y      Z        X      Y      Z        X      Y      Z
     1   6    -0.04  -0.03  -0.01    -0.01   0.00   0.00    -0.01  -0.02  -0.03
     2   6     0.10   0.09   0.04     0.10  -0.01   0.02     0.04  -0.02  -0.04
     3   1    -0.49  -0.50   0.13     0.14   0.07  -0.10    -0.32   0.53   0.78
     4   1    -0.32   0.09  -0.04    -0.03   0.01   0.02     0.00  -0.03  -0.01
     5   1     0.27  -0.19  -0.42    -0.60   0.41  -0.13    -0.02   0.02  -0.01
     6   1    -0.21  -0.17  -0.03    -0.51  -0.37   0.04    -0.02  -0.03   0.08
                     10                     11                     12
                      A                      A                      A
 Frequencies --   2928.0500              3014.8348              3131.6970
 Red. masses --      1.0801                 1.0646                 1.0990
 Frc consts  --      5.4560                 5.7012                 6.3503
 IR Inten    --     87.0869                55.4155                23.1479
  Atom  AN      X      Y      Z        X      Y      Z        X      Y      Z
     1   6     0.04   0.07  -0.02     0.01   0.01   0.00     0.00   0.00   0.00
     2   6     0.00  -0.01   0.00    -0.05   0.04  -0.03     0.03   0.08  -0.03
     3   1    -0.01   0.00  -0.02     0.01  -0.01  -0.02     0.01   0.01  -0.01
     4   1    -0.41  -0.84   0.28    -0.06  -0.15   0.05    -0.03  -0.06   0.02
     5   1     0.02   0.01   0.01     0.15   0.26  -0.08    -0.52  -0.76   0.23
     6   1    -0.10   0.14  -0.08     0.46  -0.70   0.40     0.15  -0.20   0.12

 -------------------
 - Thermochemistry -
 -------------------
 Temperature   298.150 Kelvin.  Pressure   1.00000 Atm.
 Atom     1 has atomic number  6 and mass  12.00000
 Atom     2 has atomic number  6 and mass  12.00000
 Atom     3 has atomic number  1 and mass   1.00783
 Atom     4 has atomic number  1 and mass   1.00783
 Atom     5 has atomic number  1 and mass   1.00783
 Atom     6 has atomic number  1 and mass   1.00783
 Molecular mass:    28.03130 amu.
 Principal axes and moments of inertia in atomic units:
                           1         2         3
     Eigenvalues --    14.13125  63.32588  69.00008
           X            0.94510  -0.04305  -0.32394
           Y            0.13074   0.95831   0.25408
           Z            0.29950  -0.28248   0.91132
 This molecule is an asymmetric top.
 Rotational symmetry number  1.
 Rotational temperatures (Kelvin)      6.12924     1.36775     1.25527
 Rotational constants (GHZ):         127.71276    28.49927    26.15564
    1 imaginary frequencies ignored.
 Zero-point vibrational energy     118961.5 (Joules/Mol)
                                   28.43247 (Kcal/Mol)
 Vibrational temperatures:   1415.36  1554.52  1672.46  1787.02  1883.96
          (Kelvin)           2050.85  2289.04  2906.02  4212.81  4337.67
                             4505.81
 
 Zero-point correction=                           0.045310 (Hartree/Particle)
 Thermal correction to Energy=                    0.048264
 Thermal correction to Enthalpy=                  0.049208
 Thermal correction to Gibbs Free Energy=         0.023079
 Sum of electronic and zero-point Energies=            -77.972613
 Sum of electronic and thermal Energies=               -77.969660
 Sum of electronic and thermal Enthalpies=             -77.968715
 Sum of electronic and thermal Free Energies=          -77.994844
 
                     E (Thermal)             CV                S
                      KCal/Mol        Cal/Mol-Kelvin    Cal/Mol-Kelvin
 Total                   30.286              7.370             54.992
 Electronic               0.000              0.000              0.000
 Translational            0.889              2.981             35.927
 Rotational               0.889              2.981             18.763
 Vibrational             28.509              1.409              0.302
                       Q            Log10(Q)             Ln(Q)
 Total Bot       0.242236D-10        -10.615761        -24.443692
 Total V=0       0.168021D+11         10.225362         23.544767
 Vib (Bot)       0.147627D-20        -20.830833        -47.964765
 Vib (V=0)       0.102398D+01          0.010290          0.023694
 Electronic      0.100000D+01          0.000000          0.000000
 Translational   0.583338D+07          6.765920         15.579107
 Rotational      0.281289D+04          3.449152          7.941966
 -------------------------------------------------------------------
 Center     Atomic                   Forces (Hartrees/Bohr)
 Number     Number              X              Y              Z
 -------------------------------------------------------------------
      1        6          -0.000000876   -0.000005933    0.000001450
      2        6          -0.000000211    0.000000537   -0.000001454
      3        1          -0.000000179    0.000004280   -0.000004733
      4        1           0.000001451   -0.000003866    0.000010147
      5        1          -0.000002227   -0.000000475   -0.000009700
      6        1           0.000002041    0.000005457    0.000004290
 -------------------------------------------------------------------
 Cartesian Forces:  Max     0.000010147 RMS     0.000004428

 GradGradGradGradGradGradGradGradGradGradGradGradGradGradGradGradGradGrad
 Berny optimization.
 Search for a local minimum.
 Step number   1 out of a maximum of    2
 All quantities printed in internal units (Hartrees-Bohrs-Radians)
 Second derivative matrix not updated -- analytic derivatives used.
 The second derivative matrix:
                          X1        Y1        Z1        X2        Y2
           X1           0.37083
           Y1           0.11309   0.30712
           Z1           0.03329  -0.07787   0.08124
           X2          -0.29714  -0.06095  -0.10903   0.59864
           Y2           0.01377  -0.06213   0.06670   0.06565   0.52645
           Z2          -0.08330   0.01910  -0.01592   0.09848  -0.14982
           X3           0.02714   0.00726   0.06669  -0.02545  -0.02131
           Y3          -0.02101  -0.02689  -0.03764   0.01566  -0.03191
           Z3           0.02170  -0.02133  -0.01526   0.04246  -0.04607
           X4          -0.06115  -0.05903   0.02127  -0.03251  -0.04289
           Y4          -0.10364  -0.22842   0.05211   0.00772  -0.00221
           Z4           0.04827   0.08455  -0.05680  -0.00933  -0.01107
           X5          -0.01854  -0.01946   0.01239  -0.12318  -0.10687
           Y5          -0.00648  -0.00203  -0.01218  -0.11288  -0.22972
           Z5          -0.01539  -0.02227  -0.01502   0.02691   0.06453
           X6          -0.02114   0.01909  -0.02461  -0.12036   0.09164
           Y6           0.00427   0.01235   0.00888   0.08481  -0.20048
           Z6          -0.00457   0.01782   0.02175  -0.04950   0.07572
                          Z2        X3        Y3        Z3        X4
           Z2           0.24804
           X3          -0.01493   0.00800
           Y3          -0.01928   0.00654   0.06667
           Z3          -0.07268  -0.06120   0.05728   0.08397
           X4           0.00920   0.00084   0.00580  -0.00029   0.09330
           Y4           0.01070   0.00125  -0.00969   0.00629   0.09718
           Z4          -0.00186  -0.00970  -0.00830  -0.00116  -0.02778
           X5           0.03485  -0.01425  -0.00778   0.00084  -0.00353
           Y5           0.06306   0.01079   0.00410   0.00066  -0.00115
           Z5          -0.05478   0.02512   0.01024   0.00069  -0.00605
           X6          -0.04431   0.00372   0.00079  -0.00352   0.00305
           Y6           0.07624  -0.00453  -0.00228   0.00317   0.00009
           Z6          -0.10280  -0.00597  -0.00230   0.00444   0.00364
                          Y4        Z4        X5        Y5        Z5
           Y4           0.23402
           Z4          -0.06561   0.05738
           X5          -0.00255  -0.00563   0.14888
           Y5           0.00331   0.00510   0.12359   0.24108
           Z5           0.00058   0.01026  -0.03566  -0.06389   0.05672
           X6           0.00004   0.00417   0.01061  -0.01387   0.00507
           Y6           0.00299  -0.00467   0.01307  -0.01673   0.01080
           Z6          -0.00407  -0.00782  -0.00680   0.00726   0.00213
                          X6        Y6        Z6
           X6           0.12411
           Y6          -0.09770   0.20415
           Z6           0.06321  -0.09442   0.08230
 ITU=  0
     Eigenvalues ---   -0.09909   0.04322   0.06757   0.07879   0.11221
     Eigenvalues ---    0.11507   0.15861   0.23381   0.32922   0.52417
     Eigenvalues ---    0.76824   0.92140
 Eigenvalue     1 is  -9.91D-02 should be greater than     0.000000 Eigenvector:
                          X3        Z3        Z1        Y3        Z5
   1                    0.69152   0.44324  -0.33238  -0.21491  -0.17722
                          Y2        Z2        X2        X6        X1
   1                    0.16050   0.15520  -0.14432  -0.11839  -0.11227
 Angle between quadratic step and forces=  77.24 degrees.
 Linear search not attempted -- first point.
 TrRot=  0.000000  0.000001  0.000000 -0.000001 -0.000001 -0.000001
 Variable       Old X    -DE/DX   Delta X   Delta X   Delta X     New X
                                 (Linear)    (Quad)   (Total)
    X1       -1.61173   0.00000   0.00000   0.00000   0.00000  -1.61173
    Y1       -0.00700  -0.00001   0.00000   0.00001   0.00001  -0.00699
    Z1       -1.00218   0.00000   0.00000   0.00000   0.00000  -1.00218
    X2        0.89348   0.00000   0.00000   0.00000   0.00000   0.89348
    Y2        0.15250   0.00000   0.00000   0.00000   0.00000   0.15250
    Z2       -0.07353   0.00000   0.00000   0.00000   0.00000  -0.07352
    X3       -0.86176   0.00000   0.00000  -0.00001  -0.00001  -0.86176
    Y3        1.25547   0.00000   0.00000  -0.00001  -0.00001   1.25547
    Z3        1.16764   0.00000   0.00000   0.00000   0.00000   1.16764
    X4       -2.42064   0.00000   0.00000   0.00001   0.00001  -2.42063
    Y4       -1.83226   0.00000   0.00000   0.00000   0.00000  -1.83226
    Z4       -0.35182   0.00001   0.00000   0.00000   0.00000  -0.35182
    X5        2.02391   0.00000   0.00000  -0.00001  -0.00001   2.02390
    Y5        1.80992   0.00000   0.00000   0.00000  -0.00001   1.80991
    Z5       -0.55323  -0.00001   0.00000  -0.00001  -0.00001  -0.55324
    X6        1.97674   0.00000   0.00000   0.00000   0.00000   1.97675
    Y6       -1.37863   0.00001   0.00000   0.00000   0.00000  -1.37863
    Z6        0.81311   0.00000   0.00000   0.00000   0.00001   0.81312
         Item               Value     Threshold  Converged?
 Maximum Force            0.000010     0.000450     YES
 RMS     Force            0.000004     0.000300     YES
 Maximum Displacement     0.000013     0.001800     YES
 RMS     Displacement     0.000006     0.001200     YES
 Predicted change in Energy=-5.972107D-12
 Optimization completed.
    -- Stationary point found.
 GradGradGradGradGradGradGradGradGradGradGradGradGradGradGradGradGradGrad

 1\1\GINC-ANT01\Freq\RB3LYP\3-21G\C2H4\GNOVIKOV\13-Oct-2017\0\\# B3lyp/
 3-21g nosym freq\\\0,1\C,-0.8528932959,-0.0037038771,-0.5303287575\C,0
 .4728084941,0.0807006741,-0.0389100273\H,-0.456022358,0.6643681056,0.6
 178888988\H,-1.2809482958,-0.969592648,-0.1861762936\H,1.0710077188,0.
 9577671147,-0.2927557083\H,1.0460476327,-0.7295394563,0.4302802375\\Ve
 rsion=AM64L-G09RevD.01\HF=-78.0179233\RMSD=3.232e-09\RMSF=4.428e-06\Ze
 roPoint=0.04531\Thermal=0.0482638\Dipole=0.6699976,-0.2785393,0.684203
 9\DipoleDeriv=-0.2132881,0.1827577,0.1540618,0.2945185,-0.005995,-0.08
 53575,0.0262656,-0.0294176,-0.2291394,0.3699141,-0.1067325,-0.0566496,
 -0.0268709,0.1441839,-0.1609994,-0.1420478,-0.2089036,-0.1852637,-0.08
 01184,-0.0582347,0.0111786,-0.1049073,0.1323873,-0.0170724,0.0377035,-
 0.0449977,0.0731366,0.0900624,-0.0253132,0.0009412,-0.2176302,-0.20222
 72,0.0690223,0.1540238,0.1334506,0.0928624,-0.024098,-0.0748779,0.0233
 317,-0.0696125,-0.043494,0.0490068,-0.0148351,0.0250844,0.0981935,-0.1
 424719,0.0824005,-0.1328638,0.1245025,-0.024855,0.1454002,-0.0611099,0
 .1247839,0.1502105\Polar=27.0893393,2.1272491,19.7849594,3.6309949,-0.
 1796962,16.731748\PG=C01 [X(C2H4)]\NImag=1\\0.37083129,0.11309261,0.30
 712386,0.03328850,-0.07786530,0.08124185,-0.29714359,-0.06094507,-0.10
 903301,0.59863503,0.01376764,-0.06213255,0.06670493,0.06564825,0.52645
 091,-0.08329744,0.01909658,-0.01592045,0.09848267,-0.14981994,0.248043
 30,0.02714122,0.00725748,0.06668614,-0.02544735,-0.02130610,-0.0149260
 2,0.00800112,-0.02100894,-0.02689461,-0.03764223,0.01565586,-0.0319101
 7,-0.01927637,0.00654130,0.06666805,0.02170181,-0.02133320,-0.01525738
 ,0.04246429,-0.04606930,-0.07268437,-0.06120026,0.05727665,0.08397035,
 -0.06115442,-0.05902996,0.02127419,-0.03250675,-0.04288686,0.00920445,
 0.00083739,0.00579921,-0.00028814,0.09330153,-0.10364020,-0.22841772,0
 .05211095,0.00771687,-0.00221088,0.01070427,0.00124771,-0.00968569,0.0
 0629140,0.09717758,0.23401985,0.04826826,0.08454821,-0.05679635,-0.009
 32655,-0.01106832,-0.00185849,-0.00970481,-0.00830136,-0.00116256,-0.0
 2777906,-0.06560740,0.05737633,-0.01853731,-0.01946416,0.01239432,-0.1
 2317803,-0.10686701,0.03485053,-0.01425075,-0.00777788,0.00084325,-0.0
 0353253,-0.00254555,-0.00562761,0.14888497,-0.00647676,-0.00202954,-0.
 01218389,-0.11288293,-0.22971828,0.06305715,0.01078632,0.00409807,0.00
 066059,-0.00114642,0.00330789,0.00509662,0.12358763,0.24107580,-0.0153
 8878,-0.02226580,-0.01501679,0.02691378,0.06453273,-0.05478124,0.02511
 914,0.01024039,0.00069290,-0.00604833,0.00057546,0.01025966,-0.0356620
 3,-0.06388741,0.05671985,-0.02113719,0.01908909,-0.02461014,-0.1203593
 1,0.09164408,-0.04431419,0.00371837,0.00079045,-0.00352094,0.00305479,
 0.00004359,0.00416978,0.01061365,-0.01386783,0.00506621,0.12410969,0.0
 0426565,0.01235056,0.00887555,0.08480702,-0.20047903,0.07623831,-0.004
 52671,-0.00227566,0.00317385,0.00008644,0.00298655,-0.00466774,0.01306
 697,-0.01673395,0.01080463,-0.09769937,0.20415153,-0.00457234,0.017819
 51,0.02174912,-0.04950118,0.07571989,-0.10279875,-0.00597418,-0.002297
 07,0.00444107,0.00363690,-0.00407467,-0.00781859,-0.00679846,0.0072569
 3,0.00212561,0.06320927,-0.09442459,0.08230154\\0.00000088,0.00000593,
 -0.00000145,0.00000021,-0.00000054,0.00000145,0.00000018,-0.00000428,0
 .00000473,-0.00000145,0.00000387,-0.00001015,0.00000223,0.00000047,0.0
 0000970,-0.00000204,-0.00000546,-0.00000429\\\@


 HERE WE GO......
 SLIDING DOWN THE RAZOR BLADE OF LIFE......
                                 TOM LEHRER
 Job cpu time:       0 days  0 hours  0 minutes 15.3 seconds.
 File lengths (MBytes):  RWF=     18 Int=      0 D2E=      0 Chk=      1 Scr=      5
 Normal termination of Gaussian 09 at Fri Oct 13 13:48:41 2017.
