                                                                        
Freq      RB3LYP                                                      3-21G               
Number of atoms                            I                6
Info1-9                                    I   N=           9
          19          19           0           0           0         100
           6          18        -502
Charge                                     I                0
Multiplicity                               I                1
Number of electrons                        I               16
Number of alpha electrons                  I                8
Number of beta electrons                   I                8
Number of basis functions                  I               26
Number of independent functions            I               26
Number of point charges in /Mol/           I                0
Number of translation vectors              I                0
Atomic numbers                             I   N=           6
           6           6           1           1           1           1
Nuclear charges                            R   N=           6
  6.00000000E+00  6.00000000E+00  1.00000000E+00  1.00000000E+00  1.00000000E+00
  1.00000000E+00
Current cartesian coordinates              R   N=          18
 -8.93806347E-01 -1.50390817E-01  7.39264658E-02  1.61328899E+00 -4.17283971E-03
  9.99670265E-01 -1.97402243E+00  1.38958766E+00 -8.01030379E-01 -2.02827212E+00
 -1.80763086E+00  5.44631339E-01  2.42652749E+00  1.82292868E+00  3.59947546E-01
  8.56284229E-01 -1.25032198E+00 -1.17714836E+00
Force Field                                I                0
Int Atom Types                             I   N=           6
           0           0           0           0           0           0
MM charges                                 R   N=           6
  0.00000000E+00  0.00000000E+00  0.00000000E+00  0.00000000E+00  0.00000000E+00
  0.00000000E+00
Integer atomic weights                     I   N=           6
          12          12           1           1           1           1
Real atomic weights                        R   N=           6
  1.20000000E+01  1.20000000E+01  1.00782504E+00  1.00782504E+00  1.00782504E+00
  1.00782504E+00
Atom fragment info                         I   N=           6
           0           0           0           0           0           0
Atom residue num                           I   N=           6
           0           0           0           0           0           0
Nuclear spins                              I   N=           6
           0           0           1           1           1           1
Nuclear ZEff                               R   N=           6
 -3.60000000E+00 -3.60000000E+00 -1.00000000E+00 -1.00000000E+00 -1.00000000E+00
 -1.00000000E+00
Nuclear ZNuc                               R   N=           6
  6.00000000E+00  6.00000000E+00  1.00000000E+00  1.00000000E+00  1.00000000E+00
  1.00000000E+00
Nuclear QMom                               R   N=           6
  0.00000000E+00  0.00000000E+00  0.00000000E+00  0.00000000E+00  0.00000000E+00
  0.00000000E+00
Nuclear GFac                               R   N=           6
  0.00000000E+00  0.00000000E+00  2.79284600E+00  2.79284600E+00  2.79284600E+00
  2.79284600E+00
MicOpt                                     I   N=           6
          -1          -1          -1          -1          -1          -1
Number of contracted shells                I               14
Number of primitive shells                 I               24
Pure/Cartesian d shells                    I                1
Pure/Cartesian f shells                    I                0
Highest angular momentum                   I                1
Largest degree of contraction              I                3
Shell types                                I   N=          14
           0          -1          -1           0          -1          -1
           0           0           0           0           0           0
           0           0
Number of primitives per shell             I   N=          14
           3           2           1           3           2           1
           2           1           2           1           2           1
           2           1
Shell to atom map                          I   N=          14
           1           1           1           2           2           2
           3           3           4           4           5           5
           6           6
Primitive exponents                        R   N=          24
  1.72256000E+02  2.59109000E+01  5.53335000E+00  3.66498000E+00  7.70545000E-01
  1.95857000E-01  1.72256000E+02  2.59109000E+01  5.53335000E+00  3.66498000E+00
  7.70545000E-01  1.95857000E-01  5.44717800E+00  8.24547240E-01  1.83191580E-01
  5.44717800E+00  8.24547240E-01  1.83191580E-01  5.44717800E+00  8.24547240E-01
  1.83191580E-01  5.44717800E+00  8.24547240E-01  1.83191580E-01
Contraction coefficients                   R   N=          24
  6.17669074E-02  3.58794043E-01  7.00713084E-01 -3.95895162E-01  1.21583436E+00
  1.00000000E+00  6.17669074E-02  3.58794043E-01  7.00713084E-01 -3.95895162E-01
  1.21583436E+00  1.00000000E+00  1.56284979E-01  9.04690877E-01  1.00000000E+00
  1.56284979E-01  9.04690877E-01  1.00000000E+00  1.56284979E-01  9.04690877E-01
  1.00000000E+00  1.56284979E-01  9.04690877E-01  1.00000000E+00
P(S=P) Contraction coefficients            R   N=          24
  0.00000000E+00  0.00000000E+00  0.00000000E+00  2.36459947E-01  8.60618806E-01
  1.00000000E+00  0.00000000E+00  0.00000000E+00  0.00000000E+00  2.36459947E-01
  8.60618806E-01  1.00000000E+00  0.00000000E+00  0.00000000E+00  0.00000000E+00
  0.00000000E+00  0.00000000E+00  0.00000000E+00  0.00000000E+00  0.00000000E+00
  0.00000000E+00  0.00000000E+00  0.00000000E+00  0.00000000E+00
Coordinates of each shell                  R   N=          42
 -8.93806347E-01 -1.50390817E-01  7.39264658E-02 -8.93806347E-01 -1.50390817E-01
  7.39264658E-02 -8.93806347E-01 -1.50390817E-01  7.39264658E-02  1.61328899E+00
 -4.17283971E-03  9.99670265E-01  1.61328899E+00 -4.17283971E-03  9.99670265E-01
  1.61328899E+00 -4.17283971E-03  9.99670265E-01 -1.97402243E+00  1.38958766E+00
 -8.01030379E-01 -1.97402243E+00  1.38958766E+00 -8.01030379E-01 -2.02827212E+00
 -1.80763086E+00  5.44631339E-01 -2.02827212E+00 -1.80763086E+00  5.44631339E-01
  2.42652749E+00  1.82292868E+00  3.59947546E-01  2.42652749E+00  1.82292868E+00
  3.59947546E-01  8.56284229E-01 -1.25032198E+00 -1.17714836E+00  8.56284229E-01
 -1.25032198E+00 -1.17714836E+00
Constraint Structure                       R   N=          18
 -8.93806347E-01 -1.50390817E-01  7.39264658E-02  1.61328899E+00 -4.17283971E-03
  9.99670265E-01 -1.97402243E+00  1.38958766E+00 -8.01030379E-01 -2.02827212E+00
 -1.80763086E+00  5.44631339E-01  2.42652749E+00  1.82292868E+00  3.59947546E-01
  8.56284229E-01 -1.25032198E+00 -1.17714836E+00
Num ILSW                                   I              100
ILSW                                       I   N=         100
           0           1           0           0           2           0
           0           0           0           0         402          -1
           0           0           0           0           2           0
           0           0           1           0           1           0
           1           1           0           0           0           0
           0           0      100000           0          -1           0
           0           0           0           0           0           0
           0           0           0           1           0           0
           0           0           1           0           0           0
           0           0           4          41           0           0
           0           0           5           0           0           0
           0           0           0           0           0           0
           0           0           0           0           0           0
           0           0           0           0           0           0
           0           0           0           0           0           0
           0           0           0           0           0           0
           0           0           0           0
Num RLSW                                   I               41
RLSW                                       R   N=          41
  8.00000000E-01  7.20000000E-01  1.00000000E+00  8.10000000E-01  2.00000000E-01
  0.00000000E+00  0.00000000E+00  1.00000000E+00  0.00000000E+00  0.00000000E+00
  0.00000000E+00  0.00000000E+00  1.00000000E+00  0.00000000E+00  0.00000000E+00
  0.00000000E+00  0.00000000E+00  1.00000000E+00  0.00000000E+00  0.00000000E+00
  0.00000000E+00  0.00000000E+00  1.00000000E+00  0.00000000E+00  0.00000000E+00
  0.00000000E+00  0.00000000E+00  1.00000000E+00  0.00000000E+00  0.00000000E+00
  0.00000000E+00  0.00000000E+00  1.00000000E+00  0.00000000E+00  0.00000000E+00
  0.00000000E+00  0.00000000E+00  0.00000000E+00  1.00000000E+00  1.00000000E+00
  0.00000000E+00
MxBond                                     I                4
NBond                                      I   N=           6
           4           2           1           1           1           1
IBond                                      I   N=          24
           2           3           4           6           1           5
           0           0           1           0           0           0
           1           0           0           0           2           0
           0           0           1           0           0           0
RBond                                      R   N=          24
  1.50000000E+00  1.00000000E+00  1.00000000E+00  1.00000000E+00  1.50000000E+00
  1.00000000E+00  0.00000000E+00  0.00000000E+00  1.00000000E+00  0.00000000E+00
  0.00000000E+00  0.00000000E+00  1.00000000E+00  0.00000000E+00  0.00000000E+00
  0.00000000E+00  1.00000000E+00  0.00000000E+00  0.00000000E+00  0.00000000E+00
  1.00000000E+00  0.00000000E+00  0.00000000E+00  0.00000000E+00
Virial Ratio                               R      2.008348197568922E+00
SCF Energy                                 R     -7.801792287392537E+01
Total Energy                               R     -7.801792287392537E+01
RMS Force                                  R      4.431081971805335E-06
RMS Density                                R      2.092321218239392E-09
External E-field                           R   N=          35
  0.00000000E+00  0.00000000E+00  0.00000000E+00  0.00000000E+00  0.00000000E+00
  0.00000000E+00  0.00000000E+00  0.00000000E+00  0.00000000E+00  0.00000000E+00
  0.00000000E+00  0.00000000E+00  0.00000000E+00  0.00000000E+00  0.00000000E+00
  0.00000000E+00  0.00000000E+00  0.00000000E+00  0.00000000E+00  0.00000000E+00
  0.00000000E+00  0.00000000E+00  0.00000000E+00  0.00000000E+00  0.00000000E+00
  0.00000000E+00  0.00000000E+00  0.00000000E+00  0.00000000E+00  0.00000000E+00
  0.00000000E+00  0.00000000E+00  0.00000000E+00  0.00000000E+00  0.00000000E+00
IOpCl                                      I                0
IROHF                                      I                0
Alpha Orbital Energies                     R   N=          26
 -1.01721712E+01 -1.01336340E+01 -8.22485081E-01 -5.82348998E-01 -4.88228093E-01
 -4.13317137E-01 -3.72232564E-01 -1.99605576E-01 -2.53265477E-02  7.67350461E-02
  1.25581944E-01  1.52267128E-01  2.11106275E-01  3.19185893E-01  6.84834202E-01
  7.17680524E-01  7.20435012E-01  7.73083736E-01  7.78945093E-01  8.49351778E-01
  9.32881248E-01  9.94291604E-01  1.04028414E+00  1.09806144E+00  1.62447875E+00
  1.63438494E+00
Alpha MO coefficients                      R   N=         676
  9.85808910E-01  1.08985209E-01  1.10023041E-03 -1.12841477E-03 -7.01011215E-04
 -8.00684887E-02 -8.63921749E-03  5.02334820E-03 -9.71768999E-04 -8.16469042E-03
 -1.60585641E-03  1.54831289E-03 -2.11589648E-04 -3.26534864E-04  1.68213946E-02
 -1.22678213E-02  3.08566915E-05  2.15200768E-04 -1.85522417E-03  1.22726394E-02
 -8.91875164E-04  1.56323471E-02 -5.54659704E-04  2.47005145E-03  1.25112322E-03
  1.20664883E-02  8.70415512E-03  2.39320156E-04 -1.10824938E-03 -9.96862470E-04
 -1.05081059E-03  1.83794031E-02  1.13218725E-02  9.01413172E-03  6.05466180E-03
  9.85822411E-01  1.07040278E-01 -2.73764482E-03  2.64529785E-03 -3.97967876E-03
 -7.40736973E-02  1.27092715E-02 -9.25923955E-03  1.46120613E-02 -1.34894776E-03
 -1.07045415E-03 -3.83684331E-05  4.42060623E-03 -2.37662737E-04  1.80487664E-02
  1.50430788E-03  1.11043276E-02 -1.74061927E-01  1.76188138E-01  1.14061574E-01
 -1.53911687E-02  1.26640396E-03  4.39840603E-01  5.05115863E-02 -3.91089280E-02
 -2.12442903E-02 -1.36712984E-01  1.39202818E-01 -1.15269396E-01  1.06431808E-02
 -8.68817500E-02  3.00564422E-01 -2.62327453E-02  2.93427716E-02 -6.91821584E-02
  6.88567065E-02  3.71007426E-03  7.15237325E-02 -1.32899111E-02  6.10040909E-02
 -2.06591823E-02  1.35391383E-01 -5.69393617E-03 -1.17210322E-01  1.15135092E-01
 -2.29812703E-01 -4.79271333E-02 -4.68508624E-02  4.52417770E-01 -9.18328150E-02
 -3.20321342E-02 -1.88746927E-02  1.30587448E-01 -1.29607698E-01 -1.33475919E-02
 -8.69363635E-02  6.59811733E-02 -4.47091750E-01  3.65234502E-02 -5.98625544E-02
  7.73667364E-02  1.40719713E-01  7.50318497E-02  1.64674482E-01  8.12296480E-02
 -1.39419039E-01 -6.05420000E-02 -2.73611108E-02 -9.72853840E-03 -1.82833534E-02
  1.86657780E-02 -1.54488658E-01  2.97127475E-01 -6.16882615E-02  2.24454313E-02
 -1.14910161E-01  2.42171460E-01 -5.79030102E-02 -1.82382523E-02  1.27814672E-02
  9.06912279E-02  1.98154857E-01  2.54595482E-02  9.98050570E-02  5.76815604E-03
  9.52454104E-02  7.69851998E-03  2.10092579E-01  1.45292756E-01 -7.82369489E-02
 -3.32924768E-02  1.40014680E-01  1.30618140E-01 -1.43679689E-01 -1.16385506E-01
  2.05246138E-03  3.13287481E-04 -1.68698683E-01 -1.69334876E-01  2.40244882E-01
 -5.24918057E-02 -1.46361411E-01 -1.31449215E-01  1.99156980E-01 -6.70978697E-02
  6.38096752E-02  7.23433713E-02  1.13300315E-01  1.24555717E-01  2.69531545E-01
  1.18430295E-02  7.51625407E-02  7.28418794E-02 -1.02399306E-01 -8.29721534E-02
  2.04391962E-01  1.87335830E-01  1.31886229E-01  1.29472529E-01 -1.71139187E-01
 -1.69976036E-01  4.16283383E-02 -4.85616083E-02 -1.73147833E-01 -1.68560843E-01
 -2.52513434E-01 -1.88934968E-01 -1.35827774E-01 -1.32317063E-01 -2.21768927E-01
  8.89849687E-03 -1.99629635E-02  3.14315425E-01  5.46088145E-02 -1.02122654E-01
  1.10798016E-02  1.63324565E-01  2.75350938E-02 -8.82416211E-02 -3.53033402E-03
 -4.96400383E-05  8.52643042E-02  9.42764011E-02  1.51217131E-01  1.81937044E-01
  1.31184543E-01  2.27829841E-01  3.78709879E-02 -3.57506300E-02 -1.23129850E-01
  7.54802751E-02 -7.47375048E-03 -2.33386490E-01 -1.42194696E-01 -2.41965981E-03
  9.33931439E-02 -1.11117214E-01  9.13336052E-02  1.78845850E-01 -3.06332347E-01
  1.91725338E-01  5.71570476E-01  1.76131145E-01 -2.96297023E-01  1.90940845E-01
  1.19812288E-01  2.57001659E-01 -8.04509760E-02 -1.47278406E-01 -1.14953456E-01
 -1.67917382E-01  1.71599155E-02  1.54356399E-01 -2.34765602E-02 -6.84065659E-03
  9.71299823E-02 -1.19126965E-01 -2.85938882E-01  3.47450728E-01  2.29218211E-01
 -2.38404422E-01 -4.70474799E-01 -9.55291915E-03  2.30599038E-02 -7.69039725E-02
  1.38645176E-01  3.74934486E-01 -6.58633177E-02 -7.66273583E-02  2.31188762E-01
  6.21034879E-01 -2.41043534E-02 -6.97994078E-02 -3.80517863E-02 -1.19301780E-01
 -3.81472445E-03  3.57758147E-03 -1.46935464E-02 -7.53426135E-02  4.90076523E-02
 -4.43828844E-02 -1.05464305E-01  8.65692621E-02  1.90685846E-01 -4.78372903E-01
 -2.30190222E-01  3.16982318E-01  4.76797908E-01  8.07885882E-02 -6.03405897E-02
 -3.03805407E-02  1.18340019E-01  1.82915891E-01 -7.12629680E-01 -6.95211215E-02
  1.96176004E-01  4.49070743E-01 -3.43422891E-02  8.49720521E-03 -4.93780961E-02
  2.56019777E-02  3.55106093E-03  2.66973433E-01  2.16738080E-01  1.53302491E+00
  1.11275724E-01 -6.95439681E-02  1.80945616E-01 -1.23719138E-01  3.79880605E-02
 -1.34224871E+00  6.73105084E-01 -3.06566987E-01  1.37835167E-01  3.76083704E-02
 -7.92663999E-03 -1.32726418E-01 -1.19707337E-01  1.71218308E-02 -6.42939753E-01
 -2.49855470E-01 -3.56876845E-01  1.28037389E-01  9.11093653E-02  1.42417110E+00
  2.94323778E-02  6.30695952E-01  5.89053838E-02  8.41865347E-01 -4.16219802E-02
 -1.31793203E-01  1.01375661E-01 -5.29071282E-02  9.84480045E-02  2.23461038E-01
 -8.85542600E-02 -1.34432180E+00  1.69351212E-01  7.51391405E-01 -3.14038366E-01
 -6.98560472E-02  3.09051413E-02  1.41754646E-02  1.42253560E-01 -2.92624545E-02
  8.68731073E-01 -5.45030526E-02  3.16287127E-01 -8.32473607E-02 -1.71540970E-02
 -1.45323801E-01  1.01775712E-01  1.60838672E+00 -9.53454232E-02 -9.43202827E-01
 -1.26617534E-02  2.03972489E-01  5.51445763E-02 -1.94920110E-02 -3.45174220E-02
 -2.62750599E-01  1.13802769E-01 -7.95000677E-01 -4.68824259E-01 -1.06166292E+00
  2.92580415E-01 -8.49335412E-02  3.61041912E-02 -2.15613323E-02  2.44830194E-01
 -8.47506986E-02  1.32731534E+00 -1.70283899E-01  8.65824304E-01 -4.27884432E-01
  4.14901103E-02  1.19699982E+00 -1.77845370E-02 -9.28387931E-01  2.34574775E-03
 -1.27352960E+00  6.27118444E-02  7.25833534E-02 -8.87076890E-02  2.51504633E-02
  2.47270587E-01 -4.23796055E-02  1.11732079E-01  1.58108650E+00  1.85308928E+00
 -1.47787736E-01  7.70486749E-01  9.33791016E-02 -2.07904039E-02  3.28469558E-01
  1.23996591E-01  3.81124800E-02 -1.80829574E+00  1.70412286E+00  3.90987765E-01
  4.30036656E-01  1.50120288E-02  7.47428229E-01  7.09479473E-02  1.38242873E-01
 -5.94208585E-02 -4.87658103E-01  1.01797053E-02 -9.64253819E-02  5.13556840E-03
 -5.19500788E-02 -5.35222016E-01 -7.32577385E-02 -5.03119293E-01 -2.45425844E-01
  1.02508751E+00  5.73228370E-02  5.80978845E-01 -1.47819875E-02 -4.47940343E-02
  4.47242926E-01  1.98025748E-01  5.94430633E-02 -3.51251050E-01 -5.28169527E-01
 -3.69400487E-01 -1.23350855E-01  2.89317800E-01  1.90402488E-01  5.79308877E-02
  2.63034793E-01  2.69307605E-01 -1.92224213E-02  2.97650571E-01 -5.06149097E-01
  9.41975205E-03  1.13514962E-02 -6.43091619E-01  1.10838019E-01  6.65241784E-01
 -1.36146328E-02  1.15294417E+00  1.39120840E-02 -7.34687387E-01 -3.84334566E-02
  1.09809884E-01 -4.75927044E-02  2.28544243E-02  2.29600165E-01 -3.32730853E-01
  3.87740537E-02 -7.23380653E-02 -6.24621690E-02  1.38608356E-01  6.16313635E-02
  4.17526318E-01  1.00819629E-01 -3.65445707E-02 -3.62491733E-02 -2.35815368E-01
 -2.16820883E-01  5.13453873E-03 -7.70644382E-02 -8.45788464E-02 -5.48865269E-01
 -1.52191495E-01 -3.55214700E-01 -1.30105213E-01  9.31857191E-01 -4.41968807E-02
 -4.23047753E-02 -3.14230928E-02  2.60053221E-01 -4.98469796E-01  1.60593638E-01
  3.92328540E-01 -3.63536695E-01  4.64742534E-01 -2.54998059E-01 -4.86837479E-01
  4.10412295E-03  2.97610966E-01  1.40537478E-01 -4.01707990E-01 -2.87337937E-02
 -1.27952781E-02  1.75075016E-01  3.38423953E-02  4.64870375E-02 -1.01599191E-01
 -2.92340852E-01 -4.35368523E-01  1.68335494E-01  2.38016794E-01  4.87517536E-01
  6.22352294E-01 -1.00340933E-02  1.66253354E-02 -7.25249895E-01  3.62798254E-01
  3.67047302E-01 -3.31322297E-01  9.02736734E-01 -3.33447301E-01 -4.16492406E-01
  1.79880845E-01 -1.04450507E-01  2.97285500E-01 -2.67802299E-02 -2.01969790E-01
  4.64985508E-02 -1.17478093E-01  2.20134232E-01  2.42118884E-02 -5.97427952E-02
 -3.65914270E-01 -1.73318716E-01 -1.55083550E-01  2.30802657E-01  6.56685163E-01
  2.80799048E-01  1.30830026E-01  4.65569876E-03 -2.33092278E-02 -2.18295568E-01
  1.51025394E-02 -9.40349463E-01 -6.91041393E-01  3.88985975E-01  6.84384758E-02
  1.11158326E+00  4.24896032E-02  2.76308214E-02  8.95536067E-02  8.99433388E-02
 -2.04382325E-01  1.77751006E-01 -3.38662685E-01  7.26060556E-01  6.34030704E-02
 -9.55481441E-02 -7.41839390E-02  3.15399313E-01 -5.45188533E-02  3.84802556E-01
  2.38660500E-01 -7.59268548E-01  2.72463628E-01 -9.59598494E-03  8.55318952E-03
 -3.56904863E-01 -5.47024314E-01 -1.10362259E-01  1.56090757E-01  6.25867431E-01
  1.01695972E+00  3.65876582E-02  3.51375170E-01  1.61116819E-01  2.69923188E-01
 -3.30194818E-01 -1.49448424E-01 -3.64813456E-01  8.30248580E-01 -7.26273552E-01
 -2.04708971E-03  1.40142070E-01  1.33550150E-01  3.67380357E-01 -3.80043328E-01
 -2.67037689E-01  1.09114766E-01 -9.97183247E-01  8.57906640E-01 -1.40576220E-02
  1.90234474E-01  6.59445881E-02 -5.17728338E-01  1.40083524E-01 -3.48704614E-01
  1.42972571E-01  1.03144481E+00 -1.60204950E-01  3.05656046E-01  4.76303234E-01
  2.90853785E-01 -7.73259048E-01  2.82528833E-01 -6.82281752E-01 -8.05759192E-01
  1.24794482E+00 -3.97432689E-02  2.22787436E-02 -3.86980004E-01  7.11459956E-01
 -3.16087468E-01  1.10687258E-01  5.99588177E-01 -1.34154314E+00  5.52941771E-01
 -2.04541854E-02 -9.41543625E-03 -1.21552919E-01  1.17345008E-01  5.20121318E-02
 -2.17569705E-01  3.36139470E-01  1.81921636E-01 -2.20431913E-01 -9.31704222E-01
  1.67060237E+00 -4.76021428E-02 -5.61145526E-01 -2.64870324E-01  7.75786164E-02
  1.42401907E-03 -4.25229361E-01 -4.42134610E-02  8.98407146E-02 -4.76051740E-01
 -3.02607356E-01  2.24961799E-02  2.95159269E-01  1.10608467E+00  2.55120960E-01
  2.08892603E-01  1.63279477E-02 -3.08177504E-02 -4.00086658E-01 -4.34628665E-01
  1.28360465E-01 -3.55144858E-01  1.03132426E+00  6.95803131E-01 -4.70288211E-02
 -1.26777008E-01  2.70609045E-01 -8.70514005E-01  1.22244833E+00  5.54045066E-01
 -1.14272218E+00 -5.30401976E-02 -6.95097400E-02  1.28146093E-02 -9.01867106E-02
  1.32708631E-01 -2.15242828E-02  1.25367015E-02  2.02437624E-01 -1.40569557E-01
  8.11426184E-01 -2.86913691E-01  6.26109195E-02 -3.11357000E-01 -1.83829756E-01
 -4.93703551E-02 -1.08910572E-01  3.31261979E-01  1.03036590E-01 -4.71049332E-01
  3.78258502E-01 -4.96397936E-01 -5.91330879E-03  7.03742172E-01 -3.01810384E-01
  9.78811862E-01 -7.10496653E-01  1.54836224E-01  7.79577239E-02 -1.44283068E-02
 -1.88940726E+00 -1.27550477E-02  3.92054330E-02 -9.85297254E-04  4.16686373E+00
  7.80800126E-01 -1.45297176E-01  2.53462758E-01  4.30507390E-03  6.06664092E-01
 -2.56795782E-02  4.31359240E-02  6.11908296E-02 -2.13989205E+00  1.02691005E+00
 -1.54750819E-01  2.10841814E-01 -6.39450170E-02 -5.51045584E-01 -1.42833707E-01
 -6.64834618E-01  1.47272598E-01  7.46592556E-02 -1.75391210E-01 -3.78868062E-01
 -1.83912383E-03 -5.68635517E-01 -7.72984975E-02  1.32288095E-01  2.58990734E-02
  1.69697404E-02 -4.44342699E-01 -8.94876607E-01 -2.16974459E-01 -8.09003699E-03
 -1.80196539E+00  7.19750240E-02 -8.84216353E-02  1.98173346E-01  3.15501574E+00
 -5.01212938E-01  6.71482839E-01 -9.12343040E-01  1.99154295E-01 -3.36847992E-02
 -1.04387762E-01 -5.23063269E-01 -2.55238210E-01 -8.84076225E-01 -3.01591169E-01
 -6.66206606E-01
Total SCF Density                          R   N=         351
  2.03887281E+00  1.19123849E-01  1.20322058E-01 -2.46993657E-03  7.26047578E-03
  3.26586966E-01 -5.52588426E-03  5.25425577E-03  2.36288041E-02  3.07210463E-01
 -9.20605779E-03  1.24115034E-02  4.91106030E-02 -2.95671670E-02  2.55080278E-01
 -4.51163057E-01  2.77566385E-01  2.58547113E-02  2.81617973E-03  2.97101029E-02
  9.96630447E-01 -3.13705134E-02  1.37526994E-02  2.20627432E-01  1.28515770E-02
  2.32953341E-02  9.10451427E-02  1.68964061E-01  1.05902374E-02  1.92449417E-03
  2.17340262E-02  2.36916113E-01 -2.33020117E-02  1.19390937E-02  2.15046646E-02
  1.92203254E-01  1.55458996E-03  7.83179665E-04  8.30774194E-03 -1.05425098E-02
  2.15143457E-01 -1.86896381E-02 -9.83140711E-03 -1.91970354E-02  2.03530350E-01
  1.07606138E-02 -1.30539571E-02 -4.08557139E-02 -1.81443961E-02 -4.74656378E-02
  9.01709294E-02  3.76840087E-02  2.70072871E-02 -3.64832552E-02  2.04983397E+00
 -1.43295510E-02  1.48337197E-02  5.00284894E-02  1.44314405E-02  5.00739188E-02
 -3.18415728E-02 -1.84851844E-03 -6.41526825E-03  5.01276959E-02  1.09477728E-01
  1.21222335E-01  8.29576811E-02 -8.32396323E-02 -2.25469840E-01 -4.47410300E-02
 -1.36877632E-01 -3.19600693E-01 -1.87548764E-01 -4.92999555E-02 -8.23267160E-02
 -2.45594626E-02  2.44788829E-03  3.15427141E-01 -9.13304091E-03  7.75448317E-03
 -5.46279295E-04  2.27300022E-02  1.51597508E-02  5.01839156E-02  1.06832667E-02
  5.80021033E-02 -5.63961617E-02  2.62203756E-02 -1.25470989E-02 -2.30569075E-02
  3.13204378E-01  1.96647619E-02 -1.82562848E-02 -1.11879045E-01  3.26754505E-02
  9.90217230E-02 -7.96566643E-02 -9.00739056E-02  8.17661010E-03  1.28924016E-01
 -2.89217970E-02  1.35031868E-02  4.53096004E-02 -1.03645309E-01  1.50535710E-01
  7.37209627E-02 -3.14583717E-02  7.89323590E-03  8.42901157E-02  1.45841031E-01
 -4.40356658E-01 -1.56882328E-01 -2.42509725E-02  2.00824574E-01 -5.11908939E-01
  3.24573694E-01  2.11612750E-01 -1.64605237E-01  1.78483651E-01  1.41084750E+00
  3.38025914E-03 -3.17349255E-02 -1.28537195E-01 -3.17455946E-02 -8.36354774E-02
 -1.32510117E-01 -1.08108681E-01 -4.45754608E-02 -3.55788896E-02  3.93481317E-03
  1.33007748E-02  1.73396370E-01 -9.19381986E-02  4.67081417E-02  1.61773959E-01
  1.20409534E-01 -1.96061664E-02  1.86714970E-02  4.28711250E-02 -1.80138285E-02
  2.05896822E-02  9.55847921E-02  4.66413438E-02  2.18917809E-02 -4.77479212E-02
  1.08626210E-02 -2.14920015E-02 -6.56385197E-02  2.50300669E-01 -1.08590177E-01
 -2.06030130E-01 -9.86492386E-02  2.15602922E-01  1.37592979E-02 -1.12581596E-02
 -9.47923542E-02  3.31622802E-02  6.83046293E-02 -5.34351934E-02 -7.42934396E-02
  7.72685733E-03  1.03121462E-01  1.38687789E-02  1.17067052E-02  3.85666942E-02
 -1.21910627E-01  1.31891467E-01  1.44195022E-01  4.98985736E-02 -1.19186745E-01
  1.21191076E-01 -5.99613830E-02  5.58170641E-02 -1.07618622E-01  1.63203905E-01
 -8.81361342E-02  1.53738007E-01 -7.03109805E-02  1.14588020E-01 -4.94223651E-02
 -5.31524349E-03 -3.26026761E-03  4.42988305E-02 -3.67403139E-02  3.84689128E-02
  3.93209547E-02  4.77281967E-02 -5.93488644E-02  4.69005702E-02  1.87081005E-01
  1.91059486E-02  8.26039508E-03 -1.13780353E-01  1.45923054E-01 -6.86456222E-02
 -3.55591248E-02 -9.58207050E-02  8.59611364E-02 -4.87519659E-03 -3.50097177E-02
  2.13879304E-02  1.03430301E-01 -1.31659752E-01  9.45436713E-02  2.13772161E-01
  9.51845042E-02 -1.45841134E-01  9.93729678E-02  1.61211904E-01  1.99679051E-01
 -6.05561327E-02  5.76070314E-02 -1.13876927E-01 -1.74587769E-01  5.07548291E-02
  1.92426413E-01 -6.51378151E-02 -1.29956190E-01  2.83733624E-02  1.82130144E-02
 -1.67945084E-02  1.93175607E-02  4.68013758E-02  7.97230942E-03 -9.97926525E-02
  1.17476801E-02  5.26745027E-02 -1.61568680E-03 -3.84141674E-02 -7.27921706E-02
  1.87747163E-01  1.51629758E-02  1.76799060E-02 -8.96411151E-02 -1.44666254E-01
  4.10335614E-02  7.14274095E-02 -4.73441633E-02 -9.35389572E-02  6.67065511E-03
  4.37924421E-02 -3.14701870E-02  2.85707337E-02  1.15395468E-01 -1.77740802E-02
 -1.52682678E-01 -1.06724975E-02  1.03701436E-01 -3.15582376E-02 -6.73512054E-02
 -1.04007330E-01  1.46387075E-01  1.47641721E-01  9.65254832E-03 -1.18864414E-02
 -3.38205758E-02 -1.83056843E-02 -1.53353951E-02 -8.34508174E-02 -4.73982427E-02
 -2.16816785E-03 -4.95554620E-02 -4.81203752E-02  4.64490562E-02  8.80778430E-02
  1.97856882E-01 -6.39766755E-02  1.32340325E-01  2.63124324E-04  1.43221994E-01
 -7.92371821E-02 -2.76256266E-02 -6.07831849E-02  3.90973821E-02  7.81730593E-02
  1.92477075E-01  2.47527235E-02 -2.13804900E-02 -8.26152243E-02 -4.65141885E-02
 -3.76989674E-02 -7.07843180E-02 -6.01901107E-02 -1.22635983E-02 -7.22393212E-02
  4.37979297E-02 -4.27707943E-03  1.03021131E-01  2.14032866E-01 -6.71884986E-02
 -5.29289712E-02  1.91181873E-03  1.59572592E-01 -8.13410934E-02 -3.30955298E-02
 -7.90741078E-02  6.76311850E-02  1.14528738E-01  1.78707070E-01  1.99091128E-01
 -2.14529415E-02  2.22426528E-02  9.59424304E-02 -7.06081914E-02 -1.28110356E-01
  4.81353197E-02  6.13151595E-02 -6.81944305E-02 -1.11212166E-01 -1.44917754E-02
  1.74875132E-02  7.29514559E-03 -8.42607437E-02 -9.73121218E-02  7.26121310E-03
  3.40904819E-02 -4.48471319E-02 -6.66657732E-02 -1.12013046E-02 -7.61822958E-03
 -1.75134802E-02 -4.28647844E-02 -2.55007451E-02 -4.20989098E-02  1.73039213E-01
  6.24642863E-02 -3.92267466E-02 -2.04237947E-02 -6.40431506E-02 -1.83823035E-01
 -1.60855077E-01 -2.80304113E-02 -7.13325544E-02 -1.25724998E-01  1.75195483E-02
 -2.29282153E-03  1.54278246E-01 -1.52703098E-01 -3.60049953E-02  7.06773911E-02
  1.22999928E-01 -1.26020375E-01 -8.20479166E-03  1.76894938E-02  7.24739478E-02
 -4.12978804E-02 -5.93981709E-02 -4.20110926E-02 -4.14817578E-02  1.55750730E-01
  2.37131489E-01
Mulliken Charges                           R   N=           6
 -5.15151343E-01 -3.07821917E-01  1.94736438E-01  2.39181541E-01  1.58454518E-01
  2.30600764E-01
ONIOM Charges                              I   N=          16
           0           0           0           0           0           0
           0           0           0           0           0           0
           0           0           0           0
ONIOM Multiplicities                       I   N=          16
           1           0           0           0           0           0
           0           0           0           0           0           0
           0           0           0           0
Atom Layers                                I   N=           6
           1           1           1           1           1           1
Atom Modifiers                             I   N=           6
           0           0           0           0           0           0
Force Field                                I                0
Int Atom Modified Types                    I   N=           6
           0           0           0           0           0           0
Link Atoms                                 I   N=           6
           0           0           0           0           0           0
Atom Modified MM Charges                   R   N=           6
  0.00000000E+00  0.00000000E+00  0.00000000E+00  0.00000000E+00  0.00000000E+00
  0.00000000E+00
Link Distances                             R   N=          24