                                                                        
Force     RB3LYP                                                      3-21G               
Number of atoms                            I                3
Info1-9                                    I   N=           9
          11          11           0           0           0         100
           5          18        -502
Charge                                     I                0
Multiplicity                               I                1
Number of electrons                        I               10
Number of alpha electrons                  I                5
Number of beta electrons                   I                5
Number of basis functions                  I               13
Number of independent functions            I               13
Number of point charges in /Mol/           I                0
Number of translation vectors              I                0
Atomic numbers                             I   N=           3
           8           1           1
Nuclear charges                            R   N=           3
  8.00000000E+00  1.00000000E+00  1.00000000E+00
Current cartesian coordinates              R   N=           9
  0.00000000E+00 -1.05223387E+00  6.02030955E-02 -3.17690654E-01  3.82705103E-01
  1.18656113E+00 -5.71002623E+00 -2.57857552E+00  1.18656113E+00
Force Field                                I                0
Int Atom Types                             I   N=           3
           0           0           0
MM charges                                 R   N=           3
  0.00000000E+00  0.00000000E+00  0.00000000E+00
Integer atomic weights                     I   N=           3
          16           1           1
Real atomic weights                        R   N=           3
  1.59949146E+01  1.00782504E+00  1.00782504E+00
Atom fragment info                         I   N=           3
           0           0           0
Atom residue num                           I   N=           3
           0           0           0
Nuclear spins                              I   N=           3
           0           1           1
Nuclear ZEff                               R   N=           3
 -5.60000000E+00 -1.00000000E+00 -1.00000000E+00
Nuclear ZNuc                               R   N=           3
  8.00000000E+00  1.00000000E+00  1.00000000E+00
Nuclear QMom                               R   N=           3
  0.00000000E+00  0.00000000E+00  0.00000000E+00
Nuclear GFac                               R   N=           3
  0.00000000E+00  2.79284600E+00  2.79284600E+00
MicOpt                                     I   N=           3
          -1          -1          -1
Number of contracted shells                I                7
Number of primitive shells                 I               12
Pure/Cartesian d shells                    I                1
Pure/Cartesian f shells                    I                0
Highest angular momentum                   I                1
Largest degree of contraction              I                3
Shell types                                I   N=           7
           0          -1          -1           0           0           0
           0
Number of primitives per shell             I   N=           7
           3           2           1           2           1           2
           1
Shell to atom map                          I   N=           7
           1           1           1           2           2           3
           3
Primitive exponents                        R   N=          12
  3.22037000E+02  4.84308000E+01  1.04206000E+01  7.40294000E+00  1.57620000E+00
  3.73684000E-01  5.44717800E+00  8.24547240E-01  1.83191580E-01  5.44717800E+00
  8.24547240E-01  1.83191580E-01
Contraction coefficients                   R   N=          12
  5.92393934E-02  3.51499961E-01  7.07657921E-01 -4.04453583E-01  1.22156176E+00
  1.00000000E+00  1.56284979E-01  9.04690877E-01  1.00000000E+00  1.56284979E-01
  9.04690877E-01  1.00000000E+00
P(S=P) Contraction coefficients            R   N=          12
  0.00000000E+00  0.00000000E+00  0.00000000E+00  2.44586107E-01  8.53955373E-01
  1.00000000E+00  0.00000000E+00  0.00000000E+00  0.00000000E+00  0.00000000E+00
  0.00000000E+00  0.00000000E+00
Coordinates of each shell                  R   N=          21
  0.00000000E+00 -1.05223387E+00  6.02030955E-02  0.00000000E+00 -1.05223387E+00
  6.02030955E-02  0.00000000E+00 -1.05223387E+00  6.02030955E-02 -3.17690654E-01
  3.82705103E-01  1.18656113E+00 -3.17690654E-01  3.82705103E-01  1.18656113E+00
 -5.71002623E+00 -2.57857552E+00  1.18656113E+00 -5.71002623E+00 -2.57857552E+00
  1.18656113E+00
Constraint Structure                       R   N=           9
  0.00000000E+00 -1.05223387E+00  6.02030955E-02 -3.17690654E-01  3.82705103E-01
  1.18656113E+00 -5.71002623E+00 -2.57857552E+00  1.18656113E+00
Num ILSW                                   I              100
ILSW                                       I   N=         100
           0           1           0           0           2           0
           0           0           0           0         402          -1
           0           0           0           0           2           0
           0           0           1           0           1           0
           1           1           0           0           0           0
           0           0      100000           0          -1           0
           0           0           0           0           0           0
           0           0           0           1           0           0
           0           0           1           0           0           0
           0           0           4          41           0           0
           0           0           5           0           0           0
           0           0           0           0           0           0
           0           0           0           0           0           0
           0           0           0           0           0           0
           0           0           0           0           0           0
           0           0           0           0           0           0
           0           0           0           0
Num RLSW                                   I               41
RLSW                                       R   N=          41
  8.00000000E-01  7.20000000E-01  1.00000000E+00  8.10000000E-01  2.00000000E-01
  0.00000000E+00  0.00000000E+00  1.00000000E+00  0.00000000E+00  0.00000000E+00
  0.00000000E+00  0.00000000E+00  1.00000000E+00  0.00000000E+00  0.00000000E+00
  0.00000000E+00  0.00000000E+00  1.00000000E+00  0.00000000E+00  0.00000000E+00
  0.00000000E+00  0.00000000E+00  1.00000000E+00  0.00000000E+00  0.00000000E+00
  0.00000000E+00  0.00000000E+00  1.00000000E+00  0.00000000E+00  0.00000000E+00
  0.00000000E+00  0.00000000E+00  1.00000000E+00  0.00000000E+00  0.00000000E+00
  0.00000000E+00  0.00000000E+00  0.00000000E+00  1.00000000E+00  1.00000000E+00
  0.00000000E+00
MxBond                                     I                1
NBond                                      I   N=           3
           1           1           0
IBond                                      I   N=           3
           2           1           0
RBond                                      R   N=           3
  1.00000000E+00  1.00000000E+00  0.00000000E+00
Virial Ratio                               R      2.006496227981616E+00
SCF Energy                                 R     -7.571236181684876E+01
Total Energy                               R     -7.571236181684876E+01
RMS Force                                  R      1.652391306687512E-02
RMS Density                                R      2.724127632027409E-09
External E-field                           R   N=          35
  0.00000000E+00  0.00000000E+00  0.00000000E+00  0.00000000E+00  0.00000000E+00
  0.00000000E+00  0.00000000E+00  0.00000000E+00  0.00000000E+00  0.00000000E+00
  0.00000000E+00  0.00000000E+00  0.00000000E+00  0.00000000E+00  0.00000000E+00
  0.00000000E+00  0.00000000E+00  0.00000000E+00  0.00000000E+00  0.00000000E+00
  0.00000000E+00  0.00000000E+00  0.00000000E+00  0.00000000E+00  0.00000000E+00
  0.00000000E+00  0.00000000E+00  0.00000000E+00  0.00000000E+00  0.00000000E+00
  0.00000000E+00  0.00000000E+00  0.00000000E+00  0.00000000E+00  0.00000000E+00
IOpCl                                      I                0
IROHF                                      I                0
Alpha Orbital Energies                     R   N=          13
 -1.90511193E+01 -9.45114716E-01 -4.09536319E-01 -2.71078160E-01 -2.64061502E-01
 -2.12871612E-01  1.18013229E-01  8.60536309E-01  9.41703059E-01  1.41553161E+00
  1.42589669E+00  1.54861549E+00  2.51520904E+00
Alpha MO coefficients                      R   N=         169
  9.82017375E-01  1.00053409E-01 -5.82080135E-04  2.33049583E-03  1.85474251E-03
 -3.58904266E-02  1.13092792E-03 -5.00479512E-03 -3.93731748E-03  1.88733622E-03
  9.64162153E-03 -3.03653673E-05  3.28893986E-05 -2.33153180E-01  2.31702369E-01
 -2.07130046E-02  8.92363989E-02  7.04143210E-02  7.11185705E-01 -1.82606230E-02
  7.80551569E-02  6.16457276E-02  1.55822060E-01  4.14172726E-02 -4.25006762E-05
  6.27172956E-03 -1.01485267E-01  8.56890770E-02  7.06179245E-02 -3.29738328E-01
 -2.57910433E-01  4.53808519E-01  6.51504111E-02 -3.05155584E-01 -2.38603766E-01
 -2.65349897E-01 -2.26424889E-01  3.66688943E-04  6.27246713E-03  8.31691896E-07
 -2.82187557E-07  1.63333549E-01 -2.97494959E-01  4.25067943E-01 -5.58414181E-06
  1.83350621E-01 -3.33959308E-01  4.77162541E-01  1.33225751E-06  6.06867303E-06
  1.52819568E-05  3.68057634E-05  3.99217030E-03 -4.87382840E-03 -3.56205288E-01
 -1.21952204E-01  5.14956893E-02 -1.88980944E-02 -4.17978897E-01 -1.45777675E-01
  5.85564649E-02 -3.72204599E-03  2.14365415E-02  2.25267150E-01  5.20764743E-01
  2.98514609E-03 -3.89771452E-03  3.53784074E-01  1.15986226E-01 -5.47900756E-02
 -1.49767008E-02  4.03975893E-01  1.29419017E-01 -6.46783415E-02 -4.26066997E-03
  2.02937473E-02  2.55360407E-01  5.32938572E-01  8.29137173E-02 -4.94289630E-02
  5.46708328E-02 -2.45434383E-01 -1.92785829E-01 -7.45889243E-01  9.90828937E-02
 -4.46379987E-01 -3.50485429E-01  1.23737172E-01  1.28698391E+00 -3.45854774E-02
 -1.57504154E-02  1.16330337E-02 -5.63930160E-03 -4.20235483E-02 -1.29606645E-01
 -7.45550823E-02 -4.53650942E-03  5.33362484E-02 -6.66519431E-02 -6.71462873E-02
  5.24409982E-01 -3.06850414E-01  1.15104445E+00 -9.69981343E-01  2.55425840E-02
 -3.36399138E-02  8.45740709E-02 -2.04485397E-01 -1.75617442E-01  7.31129857E-02
  9.82279459E-03 -1.56064272E-01 -1.12997634E-01  1.21433397E+00 -8.74318401E-01
 -5.15119705E-01  4.62376136E-01 -2.72019902E-04  6.35124912E-05  9.56887275E-01
  3.20887697E-01 -1.43022882E-01 -9.77129070E-04 -9.14273860E-01 -3.04063867E-01
  1.38425598E-01 -1.30257603E-02  1.20472468E-02  1.04227209E-01 -1.11563959E-01
 -7.95520811E-07  1.10481361E-06  3.05477818E-01 -5.56539651E-01  7.95128995E-01
  5.74113791E-06 -2.93905448E-01  5.35457369E-01 -7.64997835E-01 -8.35851905E-06
 -7.61816612E-06 -1.43667325E-05  1.54354366E-05 -4.85805454E-02  1.76737547E-01
  1.64906797E-01 -7.61823678E-01 -5.96583006E-01  1.27682199E-01 -2.12762653E-01
  9.79901630E-01  7.67600096E-01 -4.12967270E-01 -2.41703149E-01 -1.23401471E-02
  1.45544115E-02  1.05937013E-01 -1.55986013E+00  3.08288059E-02 -1.43837116E-01
 -1.12517054E-01  1.69585169E+00 -8.56920393E-02  3.90995129E-01  3.06579771E-01
 -2.31741278E-01 -5.33525548E-01  6.15998771E-03 -5.89783157E-03
Total SCF Density                          R   N=          91
  2.05806745E+00  7.10328120E-02  1.42126089E-01 -8.66177036E-03  5.85946160E-03
  3.17952629E-01  2.89186362E-02 -1.35021116E-02 -6.05720688E-02  4.40143043E-01
  2.35682175E-02 -1.17009395E-02  6.28242951E-02 -8.28095706E-02  5.09627940E-01
 -4.94381109E-01  4.00341985E-01  4.81356063E-02 -1.67903456E-01 -1.36012809E-01
  1.42674508E+00 -5.82436827E-03  7.00381573E-03  3.67623924E-01 -5.33638041E-02
  7.66513547E-02  4.88730177E-02  4.25806228E-01  1.45458901E-02 -1.57061855E-02
 -5.15665554E-02  4.49408617E-01 -1.30545182E-01 -1.60068165E-01 -4.32233241E-02
  4.64035071E-01  1.24190391E-02 -1.36834925E-02  7.79084991E-02 -1.29851733E-01
  5.43427490E-01 -1.30813639E-01  9.26748116E-02 -1.80492706E-01  5.83720810E-01
 -1.51255315E-02  2.71474554E-02 -4.12821412E-02  2.03717890E-01  1.58442018E-01
 -1.91940399E-02 -3.71498948E-02  1.87336837E-01  1.45389008E-01  1.89416996E-01
  4.57520793E-02 -1.78909209E-02 -4.89759245E-02  1.51526647E-01  1.24876124E-01
 -1.48098646E-01 -4.89119701E-02  1.38304801E-01  1.15598422E-01  1.32947910E-01
  1.07072214E-01  1.68436232E-03 -2.15875573E-03 -1.60424122E-01 -5.52022928E-02
  2.30183223E-02 -8.23969887E-03 -1.88258962E-01 -6.59181751E-02  2.62162923E-02
 -1.88487079E-03  9.48773630E-03  1.01490852E-01  2.48856718E-05 -1.08834159E-03
 -3.70360241E-01 -1.30055774E-01  5.13134604E-02 -5.07155698E-03 -4.34735518E-01
 -1.54705735E-01  5.88031326E-02 -5.25074578E-03  2.00064552E-02  2.34626445E-01
  5.42549197E-01
Mulliken Charges                           R   N=           3
 -3.74955951E-01  3.35331871E-01  3.96240805E-02
Optimization MaxStp                        I              100
Optimization Job offset                    I                0
Optimization Num results per geometry      I                2
Optimization Num geometry variables        I                9
Opt point       1 Results for each geome   R   N=           6
 -7.59723493E+01  0.00000000E+00 -7.59738525E+01  0.00000000E+00 -7.59739649E+01
  0.00000000E+00
Opt point       1 Geometries               R   N=          27
  0.00000000E+00 -1.05223387E+00  6.02030955E-02  0.00000000E+00  3.82705103E-01
  1.18656113E+00  0.00000000E+00 -2.48717284E+00  1.18656113E+00  0.00000000E+00
 -1.05223387E+00  5.76678474E-02  0.00000000E+00  4.44798342E-01  1.18782875E+00
  0.00000000E+00 -2.54926608E+00  1.18782875E+00  0.00000000E+00 -1.05223387E+00
  3.85786175E-02  0.00000000E+00  4.31225157E-01  1.19737337E+00  0.00000000E+00
 -2.53569290E+00  1.19737337E+00
Opt point       1 Gradient at each geome   R   N=          27
 -4.17584989E-17  7.38298311E-15  2.94734840E-02  4.29157555E-17 -2.42331434E-02
 -1.47367420E-02 -1.15725655E-18  2.42331434E-02 -1.47367420E-02 -1.64110711E-17
 -3.49720253E-15  7.00280992E-03  1.16143090E-16  4.51385053E-04 -3.50140496E-03
 -9.97320194E-17 -4.51385053E-04 -3.50140496E-03  1.72960010E-16 -9.65894031E-15
  5.77580177E-04 -2.16435637E-16 -2.04699197E-04 -2.88790089E-04  4.34756277E-17
  2.04699197E-04 -2.88790089E-04
Optimization Number of geometries          I   N=           1
           3
ONIOM Charges                              I   N=          16
           0           0           0           0           0           0
           0           0           0           0           0           0
           0           0           0           0
ONIOM Multiplicities                       I   N=          16
           1           0           0           0           0           0
           0           0           0           0           0           0
           0           0           0           0
Atom Layers                                I   N=           3
           1           1           1
Atom Modifiers                             I   N=           3
           0           0           0
Force Field                                I                0
Int Atom Modified Types                    I   N=           3
           0           0           0
Link Atoms                                 I   N=           3
           0           0           0
Atom Modified MM Charges                   R   N=           3
  0.00000000E+00  0.00000000E+00  0.00000000E+00
Link Distances                             R   N=          12
  0.00000000E+00  0.00000000E+00  0.00000000E+00  0.00000000E+00  0.00000000E+00
  0.00000000E+00  0.00000000E+00  0.00000000E+00  0.00000000E+00  0.00000000E+00
  0.00000000E+00  0.00000000E+00
Cartesian Gradient                         R   N=           9
  1.46480589E-02  2.78819905E-02  1.38653162E-02  4.74948650E-03 -2.27598234E-02
 -1.77480930E-02 -1.93975454E-02 -5.12216713E-03  3.88277673E-03
Dipole Moment                              R   N=           3
 -3.69345057E-01  4.80254997E-01  4.78064871E-01
Quadrupole Moment                          R   N=           6
  1.23471230E+00 -9.19925719E-01 -3.14786579E-01  8.19275857E-01 -5.85061336E-01
  1.33474921E-01
QEq coupling tensors                       R   N=          18
 -1.66801610E+00 -9.69757216E-01  2.58336733E-01  1.03087649E+00 -1.39236135E+00
  1.40967937E+00  2.15836944E-01  8.66534104E-02 -2.07913702E-01  9.28876612E-02
 -3.88585265E-01 -7.92324182E-03  1.17409734E-03 -6.55324508E-04 -1.07399338E-03
 -1.01591967E-03 -3.06653277E-04 -1.00103960E-04
