                                                                        
Freq      RB3LYP                                                      3-21G               
Number of atoms                            I                6
Info1-9                                    I   N=           9
          19          19           0           0           0         100
           6          18        -502
Charge                                     I                0
Multiplicity                               I                1
Number of electrons                        I               16
Number of alpha electrons                  I                8
Number of beta electrons                   I                8
Number of basis functions                  I               26
Number of independent functions            I               26
Number of point charges in /Mol/           I                0
Number of translation vectors              I                0
Atomic numbers                             I   N=           6
           6           6           1           1           1           1
Nuclear charges                            R   N=           6
  6.00000000E+00  6.00000000E+00  1.00000000E+00  1.00000000E+00  1.00000000E+00
  1.00000000E+00
Current cartesian coordinates              R   N=          18
 -1.25556694E+00 -1.75459508E-02  3.25370192E-02  1.25556691E+00  1.75382176E-02
 -3.25376678E-02 -2.36600600E+00  1.70722038E+00 -1.89415403E-02 -2.31328611E+00
 -1.77259241E+00  1.40108047E-01  2.31326707E+00  1.77259582E+00 -1.40111464E-01
  2.36602488E+00 -1.70721622E+00  1.89424869E-02
Force Field                                I                0
Int Atom Types                             I   N=           6
           0           0           0           0           0           0
MM charges                                 R   N=           6
  0.00000000E+00  0.00000000E+00  0.00000000E+00  0.00000000E+00  0.00000000E+00
  0.00000000E+00
Integer atomic weights                     I   N=           6
          12          12           1           1           1           1
Real atomic weights                        R   N=           6
  1.20000000E+01  1.20000000E+01  1.00782504E+00  1.00782504E+00  1.00782504E+00
  1.00782504E+00
Atom fragment info                         I   N=           6
           0           0           0           0           0           0
Atom residue num                           I   N=           6
           0           0           0           0           0           0
Nuclear spins                              I   N=           6
           0           0           1           1           1           1
Nuclear ZEff                               R   N=           6
 -3.60000000E+00 -3.60000000E+00 -1.00000000E+00 -1.00000000E+00 -1.00000000E+00
 -1.00000000E+00
Nuclear ZNuc                               R   N=           6
  6.00000000E+00  6.00000000E+00  1.00000000E+00  1.00000000E+00  1.00000000E+00
  1.00000000E+00
Nuclear QMom                               R   N=           6
  0.00000000E+00  0.00000000E+00  0.00000000E+00  0.00000000E+00  0.00000000E+00
  0.00000000E+00
Nuclear GFac                               R   N=           6
  0.00000000E+00  0.00000000E+00  2.79284600E+00  2.79284600E+00  2.79284600E+00
  2.79284600E+00
MicOpt                                     I   N=           6
          -1          -1          -1          -1          -1          -1
Number of contracted shells                I               14
Number of primitive shells                 I               24
Pure/Cartesian d shells                    I                1
Pure/Cartesian f shells                    I                0
Highest angular momentum                   I                1
Largest degree of contraction              I                3
Shell types                                I   N=          14
           0          -1          -1           0          -1          -1
           0           0           0           0           0           0
           0           0
Number of primitives per shell             I   N=          14
           3           2           1           3           2           1
           2           1           2           1           2           1
           2           1
Shell to atom map                          I   N=          14
           1           1           1           2           2           2
           3           3           4           4           5           5
           6           6
Primitive exponents                        R   N=          24
  1.72256000E+02  2.59109000E+01  5.53335000E+00  3.66498000E+00  7.70545000E-01
  1.95857000E-01  1.72256000E+02  2.59109000E+01  5.53335000E+00  3.66498000E+00
  7.70545000E-01  1.95857000E-01  5.44717800E+00  8.24547240E-01  1.83191580E-01
  5.44717800E+00  8.24547240E-01  1.83191580E-01  5.44717800E+00  8.24547240E-01
  1.83191580E-01  5.44717800E+00  8.24547240E-01  1.83191580E-01
Contraction coefficients                   R   N=          24
  6.17669074E-02  3.58794043E-01  7.00713084E-01 -3.95895162E-01  1.21583436E+00
  1.00000000E+00  6.17669074E-02  3.58794043E-01  7.00713084E-01 -3.95895162E-01
  1.21583436E+00  1.00000000E+00  1.56284979E-01  9.04690877E-01  1.00000000E+00
  1.56284979E-01  9.04690877E-01  1.00000000E+00  1.56284979E-01  9.04690877E-01
  1.00000000E+00  1.56284979E-01  9.04690877E-01  1.00000000E+00
P(S=P) Contraction coefficients            R   N=          24
  0.00000000E+00  0.00000000E+00  0.00000000E+00  2.36459947E-01  8.60618806E-01
  1.00000000E+00  0.00000000E+00  0.00000000E+00  0.00000000E+00  2.36459947E-01
  8.60618806E-01  1.00000000E+00  0.00000000E+00  0.00000000E+00  0.00000000E+00
  0.00000000E+00  0.00000000E+00  0.00000000E+00  0.00000000E+00  0.00000000E+00
  0.00000000E+00  0.00000000E+00  0.00000000E+00  0.00000000E+00
Coordinates of each shell                  R   N=          42
 -1.25556694E+00 -1.75459508E-02  3.25370192E-02 -1.25556694E+00 -1.75459508E-02
  3.25370192E-02 -1.25556694E+00 -1.75459508E-02  3.25370192E-02  1.25556691E+00
  1.75382176E-02 -3.25376678E-02  1.25556691E+00  1.75382176E-02 -3.25376678E-02
  1.25556691E+00  1.75382176E-02 -3.25376678E-02 -2.36600600E+00  1.70722038E+00
 -1.89415403E-02 -2.36600600E+00  1.70722038E+00 -1.89415403E-02 -2.31328611E+00
 -1.77259241E+00  1.40108047E-01 -2.31328611E+00 -1.77259241E+00  1.40108047E-01
  2.31326707E+00  1.77259582E+00 -1.40111464E-01  2.31326707E+00  1.77259582E+00
 -1.40111464E-01  2.36602488E+00 -1.70721622E+00  1.89424869E-02  2.36602488E+00
 -1.70721622E+00  1.89424869E-02
Constraint Structure                       R   N=          18
 -1.25556694E+00 -1.75459508E-02  3.25370192E-02  1.25556691E+00  1.75382176E-02
 -3.25376678E-02 -2.36600600E+00  1.70722038E+00 -1.89415403E-02 -2.31328611E+00
 -1.77259241E+00  1.40108047E-01  2.31326707E+00  1.77259582E+00 -1.40111464E-01
  2.36602488E+00 -1.70721622E+00  1.89424869E-02
Num ILSW                                   I              100
ILSW                                       I   N=         100
           0           1           0           0           2           0
           0           0           0           0         402          -1
           0           0           0           0           2           0
           0           0           1           0           1           0
           1           1           0           0           0           0
           0           0      100000           0          -1           0
           0           0           0           0           0           0
           0           0           0           1           0           0
           0           0           1           0           0           0
           0           0           4          41           0           0
           0           0           5           0           0           0
           0           0           0           0           0           0
           0           0           0           0           0           0
           0           0           0           0           0           0
           0           0           0           0           0           0
           0           0           0           0           0           0
           0           0           0           0
Num RLSW                                   I               41
RLSW                                       R   N=          41
  8.00000000E-01  7.20000000E-01  1.00000000E+00  8.10000000E-01  2.00000000E-01
  0.00000000E+00  0.00000000E+00  1.00000000E+00  0.00000000E+00  0.00000000E+00
  0.00000000E+00  0.00000000E+00  1.00000000E+00  0.00000000E+00  0.00000000E+00
  0.00000000E+00  0.00000000E+00  1.00000000E+00  0.00000000E+00  0.00000000E+00
  0.00000000E+00  0.00000000E+00  1.00000000E+00  0.00000000E+00  0.00000000E+00
  0.00000000E+00  0.00000000E+00  1.00000000E+00  0.00000000E+00  0.00000000E+00
  0.00000000E+00  0.00000000E+00  1.00000000E+00  0.00000000E+00  0.00000000E+00
  0.00000000E+00  0.00000000E+00  0.00000000E+00  1.00000000E+00  1.00000000E+00
  0.00000000E+00
MxBond                                     I                3
NBond                                      I   N=           6
           3           3           1           1           1           1
IBond                                      I   N=          18
           2           3           4           1           5           6
           1           0           0           1           0           0
           2           0           0           2           0           0
RBond                                      R   N=          18
  2.00000000E+00  1.00000000E+00  1.00000000E+00  2.00000000E+00  1.00000000E+00
  1.00000000E+00  1.00000000E+00  0.00000000E+00  0.00000000E+00  1.00000000E+00
  0.00000000E+00  0.00000000E+00  1.00000000E+00  0.00000000E+00  0.00000000E+00
  1.00000000E+00  0.00000000E+00  0.00000000E+00
Virial Ratio                               R      2.009943275972612E+00
SCF Energy                                 R     -7.816104878646624E+01
Total Energy                               R     -7.816104878646624E+01
RMS Force                                  R      1.342492531701785E-06
RMS Density                                R      9.705914496060928E-09
External E-field                           R   N=          35
  0.00000000E+00  0.00000000E+00  0.00000000E+00  0.00000000E+00  0.00000000E+00
  0.00000000E+00  0.00000000E+00  0.00000000E+00  0.00000000E+00  0.00000000E+00
  0.00000000E+00  0.00000000E+00  0.00000000E+00  0.00000000E+00  0.00000000E+00
  0.00000000E+00  0.00000000E+00  0.00000000E+00  0.00000000E+00  0.00000000E+00
  0.00000000E+00  0.00000000E+00  0.00000000E+00  0.00000000E+00  0.00000000E+00
  0.00000000E+00  0.00000000E+00  0.00000000E+00  0.00000000E+00  0.00000000E+00
  0.00000000E+00  0.00000000E+00  0.00000000E+00  0.00000000E+00  0.00000000E+00
IOpCl                                      I                0
IROHF                                      I                0
Alpha Orbital Energies                     R   N=          26
 -1.01195885E+01 -1.01185916E+01 -7.59900918E-01 -5.76980546E-01 -4.69682457E-01
 -4.23435288E-01 -3.52500731E-01 -2.70642154E-01  2.22585330E-02  1.44858005E-01
  1.54867269E-01  1.79578112E-01  2.75859632E-01  3.68632495E-01  6.67036223E-01
  7.11498294E-01  7.30873355E-01  8.00912126E-01  8.33082788E-01  8.73218260E-01
  1.01145789E+00  1.05915214E+00  1.09034188E+00  1.37670627E+00  1.39940141E+00
  1.70484603E+00
Alpha MO coefficients                      R   N=         676
 -6.96833953E-01 -7.83357639E-02 -2.44217838E-03 -3.41457816E-05  6.33586745E-05
  7.41756726E-02  1.69496389E-02  2.36967750E-04 -4.39469543E-04  6.96944485E-01
  7.83471748E-02 -2.44183610E-03 -3.41032062E-05  6.33480093E-05 -7.41813100E-02
  1.69488672E-02  2.36635258E-04 -4.39434347E-04  5.47188671E-04 -8.77356102E-03
  5.47246490E-04 -8.77343882E-03 -5.47555218E-04  8.77528656E-03 -5.47572815E-04
  8.77511512E-03  6.96816624E-01  7.19449929E-02 -2.15834172E-03 -3.01345303E-05
  5.58523287E-05 -3.55500568E-02  4.89100307E-03  6.82642471E-05 -1.26369970E-04
  6.96706073E-01  7.19325639E-02  2.15872898E-03  3.01715381E-05 -5.58639131E-05
 -3.55382867E-02 -4.89369057E-03 -6.84374838E-05  1.26446194E-04 -2.18579848E-03
  1.07265740E-02 -2.18584293E-03  1.07265485E-02 -2.18573649E-03  1.07252024E-02
 -2.18573047E-03  1.07251344E-02 -1.68114996E-01  1.81878518E-01  1.05329873E-01
  1.47182217E-03 -2.73098824E-03  3.70640052E-01  1.46038058E-02  2.04747358E-04
 -3.80763536E-04 -1.68115030E-01  1.81878564E-01 -1.05329866E-01 -1.47078369E-03
  2.73093793E-03  3.70640185E-01 -1.46038176E-02 -2.03611159E-04  3.80709555E-04
  7.78651520E-02  6.30104286E-03  7.78650632E-02  6.30137945E-03  7.78655709E-02
  6.30123998E-03  7.78646913E-02  6.30119408E-03 -1.30221236E-01  1.34288261E-01
 -1.45636849E-01 -2.03577862E-03  3.76903995E-03  4.21893551E-01 -6.13667464E-02
 -8.57589433E-04  1.58685318E-03  1.30221198E-01 -1.34288228E-01 -1.45636992E-01
 -2.03600881E-03  3.76905812E-03 -4.21893501E-01 -6.13668218E-02 -8.57989372E-04
  1.58687734E-03  1.36159747E-01  6.62164863E-02  1.36161541E-01  6.62176970E-02
 -1.36160916E-01 -6.62171593E-02 -1.36160399E-01 -6.62170525E-02  8.13785683E-08
 -2.11810998E-07 -4.36912586E-03  2.88452003E-01 -1.31839233E-02 -1.80314128E-07
 -2.85304634E-03  1.88372781E-01 -8.60893659E-03  7.50568492E-07 -6.00793622E-07
 -4.37495620E-03  2.88452017E-01 -1.31840125E-02 -3.58301039E-06 -2.85694350E-03
  1.88372815E-01 -8.60900001E-03  1.44606204E-01  1.10259338E-01 -1.44606995E-01
 -1.10259693E-01  1.44605528E-01  1.10258771E-01 -1.44607784E-01 -1.10260347E-01
 -9.74078282E-03  2.08295560E-02  3.69576173E-01  5.16204924E-03 -9.57347815E-03
 -1.33246278E-02  2.11529150E-01  2.95411005E-03 -5.47932464E-03 -9.74083083E-03
  2.08296062E-02 -3.69576080E-01 -5.16767303E-03  9.57374481E-03 -1.33244303E-02
 -2.11529126E-01 -2.95784850E-03  5.47950283E-03 -1.19122804E-01 -1.15968182E-01
 -1.19123335E-01 -1.15968586E-01 -1.19124561E-01 -1.15969903E-01 -1.19121494E-01
 -1.15966799E-01 -1.52030138E-07 -1.18026947E-08 -4.03299322E-03  2.66045569E-01
 -1.21594941E-02  1.70736347E-06 -3.20898914E-03  2.11696810E-01 -9.67556528E-03
  2.23341842E-07 -3.91990154E-07  4.03416661E-03 -2.66045410E-01  1.21607583E-02
 -8.54287928E-07  3.20999305E-03 -2.11696673E-01  9.67660893E-03  1.85520801E-01
  1.88205000E-01 -1.85518981E-01 -1.88203095E-01 -1.85519685E-01 -1.88203578E-01
  1.85520008E-01  1.88204462E-01 -2.80840710E-06  3.84258297E-06  8.73781055E-03
  1.59413387E-02  3.45910760E-01  4.38301664E-06  8.94448933E-03  1.63301528E-02
  3.54288609E-01  2.80659825E-06 -3.84108498E-06  8.73780765E-03  1.59424841E-02
  3.45910795E-01 -4.37412366E-06  8.94448600E-03  1.63311693E-02  3.54288657E-01
 -1.56286325E-06 -2.63473378E-06  3.28360711E-07  1.41503228E-06  2.68700751E-07
 -6.33290237E-07  9.66778463E-07  1.85770708E-06 -3.17584083E-06  2.16093587E-06
  9.17047027E-03  1.67403610E-02  3.63219225E-01  2.91245609E-05  1.71053600E-02
  3.12270657E-02  6.77547116E-01 -3.17057730E-06  2.15606308E-06 -9.17046477E-03
 -1.67410423E-02 -3.63219164E-01  2.90951088E-05 -1.71053554E-02 -3.12285205E-02
 -6.77546959E-01 -4.31786598E-06 -1.22729747E-05 -4.78017773E-06 -1.34871613E-05
 -4.42882372E-06 -1.23036016E-05 -4.65722839E-06 -1.34211070E-05 -9.49547698E-02
  5.34975998E-02 -1.63079501E-01 -2.26736239E-03  4.21447152E-03  1.31581453E+00
 -5.84334972E-01 -8.13600350E-03  1.50987245E-02 -9.49549321E-02  5.34977090E-02
  1.63079321E-01  2.28941759E-03 -4.21549045E-03  1.31581639E+00  5.84334408E-01
  8.19952582E-03 -1.51016599E-02 -4.08230162E-02 -9.13662117E-01 -4.08164546E-02
 -9.13594804E-01 -4.08227587E-02 -9.13668150E-01 -4.08168902E-02 -9.13591155E-01
  3.53915729E-06 -1.75784450E-06 -3.92954649E-03  2.59799064E-01 -1.18755642E-02
 -5.35636330E-05 -1.10797832E-02  7.32920708E-01 -3.34986530E-02  3.97910071E-06
 -2.01424516E-06 -3.94641609E-03  2.59798946E-01 -1.18760132E-02 -5.54500576E-05
 -1.11346296E-02  7.32920238E-01 -3.35001112E-02 -7.92987146E-02 -9.32549278E-01
  7.93014334E-02  9.32622321E-01 -7.92978104E-02 -9.32548843E-01  7.93023628E-02
  9.32623491E-01 -1.28185078E-01  7.20416528E-02 -9.98131626E-02 -1.39616122E-03
  2.58042022E-03  1.59749229E+00 -2.17526054E-01 -3.04745825E-03  5.61931451E-03
  1.28184949E-01 -7.20415919E-02 -9.98130293E-02 -1.39381426E-03  2.58032316E-03
 -1.59749042E+00 -2.17525411E-01 -3.03672751E-03  5.61885505E-03 -5.52540377E-02
 -9.31506351E-01 -5.52535081E-02 -9.31525297E-01  5.52536417E-02  9.31512394E-01
  5.52538314E-02  9.31516714E-01 -2.63559111E-07 -1.32380261E-07 -4.61845714E-03
  3.04655917E-01 -1.39246612E-02  5.24129467E-06 -2.25736467E-02  1.48955218E+00
 -6.80823925E-02  2.25384010E-07  4.18239634E-07  4.61578107E-03 -3.04655850E-01
  1.39252009E-02 -1.24163199E-05  2.25748895E-02 -1.48955168E+00  6.80835413E-02
  1.81472850E-02 -1.28647876E+00 -1.81495225E-02  1.28646925E+00 -1.81483566E-02
  1.28648250E+00  1.81484686E-02 -1.28646453E+00 -9.59975619E-02  9.56989989E-03
  2.07846206E-01  2.90497161E-03 -5.37974605E-03  2.50463796E+00  2.49681765E+00
  3.48932753E-02 -6.46971702E-02  9.59975623E-02 -9.56991025E-03  2.07846206E-01
  2.90299649E-03 -5.37966080E-03 -2.50463797E+00  2.49681787E+00  3.48790299E-02
 -6.46965411E-02  6.79771895E-02  4.18498859E-01  6.79740408E-02  4.18526299E-01
 -6.79770160E-02 -4.18503559E-01 -6.79742116E-02 -4.18521610E-01 -1.72537860E-02
 -1.01529004E-01 -6.58061057E-01 -9.18044982E-03  1.70579066E-02 -4.74766732E-01
  1.05697826E+00  1.47548958E-02 -2.73847551E-02 -1.72537745E-02 -1.01529022E-01
  6.58060786E-01  9.20668295E-03 -1.70590993E-02 -4.74766645E-01 -1.05697813E+00
 -1.47875476E-02  2.73862564E-02  8.68335619E-02  1.91593475E-01  8.68122443E-02
  1.91610480E-01  8.68338450E-02  1.91598880E-01  8.68119413E-02  1.91605423E-01
 -2.70252445E-09  1.51824303E-07  6.72127945E-03 -4.44938601E-01  2.02771467E-02
 -1.79498495E-05 -1.08630735E-02  7.19348587E-01 -3.28330051E-02 -9.81837514E-07
  2.62706426E-07  6.75639135E-03 -4.44938218E-01  2.02754398E-02 -1.60343586E-05
 -1.09281592E-02  7.19347766E-01 -3.28318195E-02 -4.29003776E-01  7.62426152E-03
  4.29018121E-01 -7.61474416E-03 -4.29007472E-01  7.62236225E-03  4.29014493E-01
 -7.61669403E-03 -1.17560868E-06  1.73193261E-06  1.89953160E-02  3.46254019E-02
  7.52003424E-01  1.13640961E-06 -1.49725271E-02 -2.72220434E-02 -5.91858146E-01
  1.17394113E-06 -1.72682852E-06  1.89953122E-02  3.46267018E-02  7.52004069E-01
 -1.11713592E-06 -1.49725182E-02 -2.72231293E-02 -5.91859064E-01 -4.44550804E-05
 -5.65397301E-06  2.61990142E-05 -9.55560810E-06 -2.63684653E-05  9.41158148E-06
  4.46079895E-05  5.77715009E-06  4.38768806E-07 -7.19349675E-06 -1.94276260E-02
 -3.54228883E-02 -7.68564066E-01 -1.16363749E-05  2.52910513E-02  4.61040579E-02
  1.00031229E+00  4.41180254E-07 -7.19157736E-06  1.94276403E-02  3.54230062E-02
  7.68563345E-01 -1.16327920E-05 -2.52910647E-02 -4.61033829E-02 -1.00031178E+00
 -6.42750375E-06  1.58169156E-05 -5.78128350E-06  1.52702924E-05 -6.50053855E-06
  1.50542460E-05 -5.68332175E-06  1.60032114E-05  8.26945249E-02 -2.82880045E-02
 -6.15812241E-01 -8.59528351E-03  1.59630463E-02  3.61107894E-03  7.40727496E-01
  1.03351625E-02 -1.91905431E-02 -8.26945379E-02  2.82878955E-02 -6.15811951E-01
 -8.60630161E-03  1.59635770E-02 -3.61100268E-03  7.40727148E-01  1.03569425E-02
 -1.91916055E-02  4.29653707E-01 -5.98072431E-02  4.29656172E-01 -5.98197588E-02
 -4.29649642E-01  5.98058177E-02 -4.29660737E-01  5.98214661E-02  3.36001250E-02
  2.80703800E-01  1.56835087E-01  2.19036011E-03 -4.06980878E-03 -3.29735458E-01
  1.00158351E-01  1.40198983E-03 -2.56304531E-03  3.36000860E-02  2.80703798E-01
 -1.56835456E-01 -2.19036980E-03  4.06983131E-03 -3.29735295E-01 -1.00157823E-01
 -1.40949664E-03  2.56337714E-03  6.21757179E-01 -2.98091778E-01  6.21747997E-01
 -2.98082798E-01  6.21755560E-01 -2.98084452E-01  6.21749452E-01 -2.98090413E-01
  4.33706037E-07 -2.13373819E-06  1.16930971E-02 -7.72167321E-01  3.52928917E-02
  9.99651392E-06 -2.68056805E-02  1.76996791E+00 -8.08992271E-02 -5.31181799E-07
 -1.83282264E-06 -1.17113961E-02  7.72168228E-01 -3.52937390E-02 -8.26865097E-06
  2.68439697E-02 -1.76996891E+00  8.09002258E-02  3.40354224E-01 -1.11509770E+00
 -3.40353964E-01  1.11510267E+00 -3.40357433E-01  1.11510040E+00  3.40352662E-01
 -1.11510359E+00 -8.48555916E-08  4.26279520E-06 -9.93834735E-03  6.55327505E-01
 -2.99540785E-02  1.94065549E-06  1.31792940E-02 -8.68633827E-01  3.97030536E-02
  5.89012129E-07 -2.69747713E-07 -9.94243501E-03  6.55325855E-01 -2.99547500E-02
 -5.17394649E-06  1.31866390E-02 -8.68630127E-01  3.97042159E-02 -4.84781373E-01
  9.38882036E-01  4.84772520E-01 -9.38860564E-01 -4.84768083E-01  9.38856856E-01
  4.84784541E-01 -9.38881376E-01 -2.74637168E-02  1.10208002E-01 -6.70104554E-01
 -9.36669680E-03  1.73503523E-02  4.19797764E-01  1.38573580E+00  1.93591483E-02
 -3.58916429E-02  2.74637124E-02 -1.10208291E-01 -6.70104297E-01 -9.37751372E-03
  1.73508584E-02 -4.19797414E-01  1.38573539E+00  1.93867928E-02 -3.58929278E-02
 -4.95685295E-01  8.17024424E-01 -4.95700564E-01  8.17041414E-01  4.95698994E-01
 -8.17050646E-01  4.95686698E-01 -8.17015331E-01 -1.49516829E-06  2.92917793E-05
  5.55831126E-03 -3.66898369E-01  1.67695938E-02 -2.22421236E-05 -3.90475804E-02
  2.57924227E+00 -1.17889363E-01  8.52128515E-07  6.72904517E-06 -5.55976433E-03
  3.66898343E-01 -1.67699079E-02 -3.87554436E-05  3.91178257E-02 -2.57924103E+00
  1.17889362E-01 -6.63471082E-01 -6.46766298E-01  6.63462512E-01  6.46815430E-01
  6.63466644E-01  6.46791229E-01 -6.63466798E-01 -6.46790327E-01  3.16993069E-02
 -1.22226055E+00  1.35807058E-01  1.89258985E-03 -3.51301732E-03  1.70143084E+00
 -3.42762249E-01 -4.75143073E-03  8.85802996E-03  3.16992947E-02 -1.22226081E+00
 -1.35806893E-01 -1.89453145E-03  3.51311176E-03  1.70143168E+00  3.42761651E-01
  4.75879637E-03 -8.85837451E-03  1.64190811E-01 -6.72250114E-01  1.64214468E-01
 -6.72235931E-01  1.64211690E-01 -6.72236048E-01  1.64193313E-01 -6.72249775E-01
 -3.59340581E-03 -1.41445642E+00 -6.80969440E-02 -9.55161269E-04  1.76680559E-03
  3.88440697E+00  1.15384677E+00  1.61536305E-02 -2.99138625E-02  3.59341247E-03
  1.41445615E+00 -6.80970676E-02 -9.47153100E-04  1.76643591E-03 -3.88440660E+00
  1.15384782E+00  1.60861002E-02 -2.99107500E-02 -1.19829089E-01 -3.62342776E-01
 -1.19812747E-01 -3.62323914E-01  1.19827669E-01  3.62345214E-01  1.19814232E-01
  3.62321180E-01
Total SCF Density                          R   N=         351
  2.03289214E+00  1.12905803E-01  1.25719153E-01 -4.28936351E-03  1.46681844E-02
  3.38026697E-01 -5.97644299E-05  2.04677368E-04  3.30958750E-04  3.08543778E-01
  1.10723764E-04 -3.79188805E-04 -2.49165278E-03 -3.16948622E-03  2.40178491E-01
 -3.87159712E-01  2.30842024E-01 -5.48652633E-02 -7.66274834E-04  1.41938984E-03
  6.44623199E-01 -9.85460241E-03 -4.30900309E-03  1.77406445E-01 -5.92992164E-04
  1.75145994E-03 -4.44252335E-02  9.82667672E-02 -1.38284635E-04 -6.00473472E-05
 -5.93202280E-04  2.21870231E-01  1.11820679E-03 -6.19473599E-04 -7.71711620E-04
  1.61152166E-01  2.55858751E-04  1.12817927E-04  1.75489974E-03  1.11674363E-03
  2.45685667E-01  1.14959853E-03  3.90899347E-03  4.19574670E-03  2.51442088E-01
  2.24435383E-02 -3.55267933E-02 -8.69565817E-02 -1.21458314E-03  2.25442211E-03
  3.93749967E-02  5.42746208E-03  7.61501272E-05 -1.38631414E-04  2.03289215E+00
 -3.55267937E-02  2.90362891E-02  9.21321287E-02  1.28683152E-03 -2.38918421E-03
  2.74656883E-02  3.39655341E-02  4.74307127E-04 -8.82707602E-04  1.12905788E-01
  1.25719172E-01  8.69565728E-02 -9.21321133E-02 -2.52780567E-01 -3.63138826E-03
  1.26159294E-02 -1.91632266E-01 -1.41460402E-01 -1.63256336E-03  9.85833095E-03
  4.28937102E-03 -1.46681917E-02  3.38026759E-01  1.21507401E-03 -1.28742176E-03
 -3.63250327E-03  2.53076174E-02  9.98508023E-03 -2.67858322E-03 -1.63342504E-03
 -3.47587953E-03  1.15295416E-02  5.98424960E-05 -2.04728857E-04  3.30996607E-04
  3.08543809E-01 -2.25444624E-03  2.38921271E-03  1.26159816E-02  9.98481672E-03
  2.39190617E-01  4.96598764E-03  9.85420024E-03  1.15305614E-02  2.45001110E-01
 -1.10727412E-04  3.79190904E-04 -2.49165196E-03 -3.16951976E-03  2.40178615E-01
  3.93749937E-02  2.74656978E-02  1.91632361E-01  2.67578044E-03 -4.96585332E-03
 -8.93631340E-02  5.41065858E-02  7.54810759E-04 -1.40403925E-03 -3.87159734E-01
  2.30842073E-01  5.48652111E-02  7.66570475E-04 -1.41940124E-03  6.44623301E-01
 -5.42746696E-03 -3.39655327E-02 -1.41460422E-01 -1.63283910E-03  9.85417327E-03
 -5.41065388E-02 -8.17015386E-02 -5.68241762E-04  8.44570675E-03  9.85461773E-03
  4.30899642E-03  1.77406512E-01 -5.93375122E-04  1.75148027E-03  4.44251986E-02
  9.82668238E-02 -7.56238476E-05 -4.74592905E-04 -1.63325323E-03 -3.47586616E-03
  1.15308185E-02 -7.56745394E-04 -5.68693163E-04 -1.81450025E-02  1.24547406E-02
  1.37388725E-04  6.01968964E-05 -5.93236064E-04  2.21870255E-01  1.11827480E-03
  6.20476039E-04 -7.71998247E-04  1.61152186E-01  1.38605328E-04  8.82722375E-04
  9.85836299E-03  1.15291952E-02  2.45001118E-01  1.40413522E-03  8.44572787E-03
  1.24544050E-02  2.50946899E-01 -2.55816616E-04 -1.12824933E-04  1.75490375E-03
  1.11690429E-03  2.45685784E-01 -1.14964244E-03  3.90900925E-03  4.19596269E-03
  2.51442203E-01 -6.31305154E-02  5.95304489E-02 -1.14059878E-01  1.80582907E-01
 -5.44396390E-03  1.76021428E-01 -6.68516621E-02  1.32122522E-01 -4.40262478E-03
  9.31917816E-03 -1.34368983E-02  3.22064488E-02 -1.48425464E-02 -1.30825295E-04
 -5.39226056E-02  3.18149375E-02 -2.36286713E-02  2.84411927E-04  1.88253400E-01
  1.00713581E-02  1.81630734E-02 -1.06162928E-01  1.62302812E-01 -4.80082608E-03
  6.15702932E-02 -5.90338269E-02  1.20425575E-01 -4.06106944E-03  2.01036513E-02
 -2.01551506E-02  6.57464702E-02 -3.56215330E-02 -2.09591868E-05 -4.75732025E-02
  4.09260953E-02 -3.75808873E-02  6.96540320E-04  1.48305973E-01  1.31286448E-01
 -6.31310192E-02  5.95309922E-02 -1.08540760E-01 -1.83692279E-01  1.12066100E-02
  1.76021740E-01 -6.28204717E-02 -1.33933088E-01  7.75840228E-03  9.31910444E-03
 -1.34367936E-02  3.17432878E-02  1.57361125E-02 -1.52778340E-03 -5.39214702E-02
  3.10854422E-02  2.45073566E-02 -1.91538911E-03 -3.30612393E-02 -5.51336654E-02
  1.88253710E-01  1.00708102E-02  1.81635837E-02 -1.01200384E-01 -1.65198791E-01
  1.01704667E-02  6.15703892E-02 -5.53599792E-02 -1.22022650E-01  7.02259894E-03
  2.01034970E-02 -2.01547946E-02  6.46389514E-02  3.74435681E-02 -3.35831868E-03
 -4.75717567E-02  3.97696706E-02  3.87083474E-02 -2.78840175E-03 -5.51334513E-02
 -5.90256327E-02  1.48305694E-01  1.31285681E-01  9.31915334E-03 -1.34368756E-02
 -3.17430500E-02 -1.57359525E-02  1.52776799E-03 -5.39225556E-02 -3.10852713E-02
 -2.45072976E-02  1.91545287E-03 -6.31308051E-02  5.95308589E-02  1.08539291E-01
  1.83693345E-01 -1.12067626E-02  1.76021437E-01  6.28194281E-02  1.33933996E-01
 -7.75844176E-03 -2.35771914E-02 -2.74021369E-02  3.04491450E-02  4.84833629E-02
  1.88253786E-01  2.01036087E-02 -2.01550878E-02 -6.46392830E-02 -3.74431248E-02
  3.35840937E-03 -4.75731095E-02 -3.97698045E-02 -3.87081104E-02  2.78857923E-03
  1.00713484E-02  1.81633116E-02  1.01199518E-01  1.65199845E-01 -1.01704957E-02
  6.15699260E-02  5.53592624E-02  1.22023421E-01 -7.02250306E-03 -2.74020445E-02
 -2.82437714E-02  4.84832856E-02  6.48105541E-02  1.48305903E-01  1.31286110E-01
  9.31912770E-03 -1.34368116E-02 -3.22066886E-02  1.48427110E-02  1.30823237E-04
 -5.39214849E-02 -3.18150974E-02  2.36287492E-02 -2.84483188E-04 -6.31307190E-02
  5.95305826E-02  1.14061333E-01 -1.80581806E-01  5.44401010E-03  1.76021707E-01
  6.68527062E-02 -1.32121590E-01  4.40257433E-03  3.04491647E-02  4.84833242E-02
 -2.35768576E-02 -2.74017859E-02 -3.30612444E-02 -5.51334926E-02  1.88253313E-01
  2.01035296E-02 -2.01548448E-02 -6.57461355E-02  3.56220065E-02  2.08258672E-05
 -4.75717918E-02 -4.09259438E-02  3.75811530E-02 -6.96740106E-04  1.00708345E-02
  1.81633287E-02  1.06163755E-01 -1.62301739E-01  4.80075564E-03  6.15706865E-02
  5.90345326E-02 -1.20424790E-01  4.06090143E-03  4.84834149E-02  6.48106909E-02
 -2.74018901E-02 -2.82437266E-02 -5.51336415E-02 -5.90256423E-02  1.48305740E-01
  1.31285993E-01
Mulliken Charges                           R   N=           6
 -3.73330516E-01 -3.73331243E-01  1.86665563E-01  1.86665258E-01  1.86665368E-01
  1.86665571E-01
ONIOM Charges                              I   N=          16
           0           0           0           0           0           0
           0           0           0           0           0           0
           0           0           0           0
ONIOM Multiplicities                       I   N=          16
           1           0           0           0           0           0
           0           0           0           0           0           0
           0           0           0           0
Atom Layers                                I   N=           6
           1           1           1           1           1           1
Atom Modifiers                             I   N=           6
           0           0           0           0           0           0
Force Field                                I                0
Int Atom Modified Types                    I   N=           6
           0           0           0           0           0           0
Link Atoms                                 I   N=           6
           0           0           0           0           0           0
Atom Modified MM Charges                   R   N=           6
  0.00000000E+00  0.00000000E+00  0.00000000E+00  0.00000000E+00  0.00000000E+00
  0.00000000E+00
Link Distances                             R   N=          24
  0.00000000E+00  0.00000000E+00  0.00000000E+00  0.00000000E+00  0.00000000E+00
  0.00000000E+00  0.00000000E+00  0.00000000E+00  0.00000000E+00  0.00000000E+00