 Entering Gaussian System, Link 0=/Johnny/gnovikov/gauss/g09/g09
 Initial command:
 /Johnny/gnovikov/gauss/g09/l1.exe "/Johnny/gnovikov/gauss/scr/Gau-26358.inp" -scrdir="/Johnny/gnovikov/gauss/scr/"
 Entering Link 1 = /Johnny/gnovikov/gauss/g09/l1.exe PID=     26360.
  
 Copyright (c) 1988,1990,1992,1993,1995,1998,2003,2009,2013,
            Gaussian, Inc.  All Rights Reserved.
  
 This is part of the Gaussian(R) 09 program.  It is based on
 the Gaussian(R) 03 system (copyright 2003, Gaussian, Inc.),
 the Gaussian(R) 98 system (copyright 1998, Gaussian, Inc.),
 the Gaussian(R) 94 system (copyright 1995, Gaussian, Inc.),
 the Gaussian 92(TM) system (copyright 1992, Gaussian, Inc.),
 the Gaussian 90(TM) system (copyright 1990, Gaussian, Inc.),
 the Gaussian 88(TM) system (copyright 1988, Gaussian, Inc.),
 the Gaussian 86(TM) system (copyright 1986, Carnegie Mellon
 University), and the Gaussian 82(TM) system (copyright 1983,
 Carnegie Mellon University). Gaussian is a federally registered
 trademark of Gaussian, Inc.
  
 This software contains proprietary and confidential information,
 including trade secrets, belonging to Gaussian, Inc.
  
 This software is provided under written license and may be
 used, copied, transmitted, or stored only in accord with that
 written license.
  
 The following legend is applicable only to US Government
 contracts under FAR:
  
                    RESTRICTED RIGHTS LEGEND
  
 Use, reproduction and disclosure by the US Government is
 subject to restrictions as set forth in subparagraphs (a)
 and (c) of the Commercial Computer Software - Restricted
 Rights clause in FAR 52.227-19.
  
 Gaussian, Inc.
 340 Quinnipiac St., Bldg. 40, Wallingford CT 06492
  
  
 ---------------------------------------------------------------
 Warning -- This program may not be used in any manner that
 competes with the business of Gaussian, Inc. or will provide
 assistance to any competitor of Gaussian, Inc.  The licensee
 of this program is prohibited from giving any competitor of
 Gaussian, Inc. access to this program.  By using this program,
 the user acknowledges that Gaussian, Inc. is engaged in the
 business of creating and licensing software in the field of
 computational chemistry and represents and warrants to the
 licensee that it is not a competitor of Gaussian, Inc. and that
 it will not use this program in any manner prohibited above.
 ---------------------------------------------------------------
  

 Cite this work as:
 Gaussian 09, Revision D.01,
 M. J. Frisch, G. W. Trucks, H. B. Schlegel, G. E. Scuseria, 
 M. A. Robb, J. R. Cheeseman, G. Scalmani, V. Barone, B. Mennucci, 
 G. A. Petersson, H. Nakatsuji, M. Caricato, X. Li, H. P. Hratchian, 
 A. F. Izmaylov, J. Bloino, G. Zheng, J. L. Sonnenberg, M. Hada, 
 M. Ehara, K. Toyota, R. Fukuda, J. Hasegawa, M. Ishida, T. Nakajima, 
 Y. Honda, O. Kitao, H. Nakai, T. Vreven, J. A. Montgomery, Jr., 
 J. E. Peralta, F. Ogliaro, M. Bearpark, J. J. Heyd, E. Brothers, 
 K. N. Kudin, V. N. Staroverov, T. Keith, R. Kobayashi, J. Normand, 
 K. Raghavachari, A. Rendell, J. C. Burant, S. S. Iyengar, J. Tomasi, 
 M. Cossi, N. Rega, J. M. Millam, M. Klene, J. E. Knox, J. B. Cross, 
 V. Bakken, C. Adamo, J. Jaramillo, R. Gomperts, R. E. Stratmann, 
 O. Yazyev, A. J. Austin, R. Cammi, C. Pomelli, J. W. Ochterski, 
 R. L. Martin, K. Morokuma, V. G. Zakrzewski, G. A. Voth, 
 P. Salvador, J. J. Dannenberg, S. Dapprich, A. D. Daniels, 
 O. Farkas, J. B. Foresman, J. V. Ortiz, J. Cioslowski, 
 and D. J. Fox, Gaussian, Inc., Wallingford CT, 2013.
 
 ******************************************
 Gaussian 09:  AM64L-G09RevD.01 24-Apr-2013
                13-Oct-2017 
 ******************************************
 %RWF=./tmp/7518573442850008323/rwf
 %Int=./tmp/7518573442850008323/int
 %D2E=./tmp/7518573442850008323/d2e
 %Scr=./tmp/7518573442850008323/skr
 %NoSave
 %chk=./tmp/7518573442850008323/chk
 %nproc=3
 Will use up to    3 processors via shared memory.
 %mem=1000mb
 ------------------------
 # B3lyp/3-21g nosym freq
 ------------------------
 1/10=4,30=1,38=1/1,3;
 2/12=2,15=1,17=6,18=5,40=1/2;
 3/5=5,11=2,16=1,25=1,30=1,71=2,74=-5,140=1/1,2,3;
 4//1;
 5/5=2,38=5,98=1/2;
 8/6=4,10=90,11=11/1;
 11/6=1,8=1,9=11,15=111,16=1,31=1/1,2,10;
 10/6=1,31=1/2;
 6/7=2,8=2,9=2,10=2,18=1,28=1/1;
 7/8=1,10=1,25=1,30=1/1,2,3,16;
 1/10=4,30=1/3;
 99//99;


 Symbolic Z-matrix:
 Charge =  0 Multiplicity = 1
 6                    -0.66442  -0.00928   0.01722 
 6                     0.66442   0.00928  -0.01722 
 1                    -1.25204   0.90342  -0.01002 
 1                    -1.22414  -0.93802   0.07414 
 1                     1.22413   0.93802  -0.07414 
 1                     1.25205  -0.90342   0.01002 
 

 GradGradGradGradGradGradGradGradGradGradGradGradGradGradGradGradGradGrad
 Berny optimization.
 Initialization pass.
 Trust Radius=3.00D-01 FncErr=1.00D-07 GrdErr=1.00D-07
 Number of steps in this run=      2 maximum allowed number of steps=      2.
 GradGradGradGradGradGradGradGradGradGradGradGradGradGradGradGradGradGrad

                          Input orientation:                          
 ---------------------------------------------------------------------
 Center     Atomic      Atomic             Coordinates (Angstroms)
 Number     Number       Type             X           Y           Z
 ---------------------------------------------------------------------
      1          6           0       -0.664417   -0.009285    0.017218
      2          6           0        0.664417    0.009281   -0.017218
      3          1           0       -1.252036    0.903422   -0.010023
      4          1           0       -1.224138   -0.938016    0.074142
      5          1           0        1.224128    0.938017   -0.074144
      6          1           0        1.252046   -0.903420    0.010024
 ---------------------------------------------------------------------
                    Distance matrix (angstroms):
                    1          2          3          4          5
     1  C    0.000000
     2  C    1.329411   0.000000
     3  H    1.085851   2.114790   0.000000
     4  H    1.085849   2.114795   1.843571   0.000000
     5  H    2.114789   1.085849   2.477236   3.087960   0.000000
     6  H    2.114796   1.085851   3.087962   2.477256   1.843571
                    6
     6  H    0.000000
 Symmetry turned off by external request.
 Stoichiometry    C2H4
 Framework group  C2[X(C2H4)]
 Deg. of freedom     7
 Full point group                 C2      NOp   2
 Rotational constants (GHZ):    147.5408352     30.1022157     25.0012935
 Standard basis: 3-21G (6D, 7F)
    26 basis functions,    42 primitive gaussians,    26 cartesian basis functions
     8 alpha electrons        8 beta electrons
       nuclear repulsion energy        33.3755639180 Hartrees.
 NAtoms=    6 NActive=    6 NUniq=    6 SFac= 1.00D+00 NAtFMM=   60 NAOKFM=F Big=F
 Integral buffers will be    131072 words long.
 Raffenetti 2 integral format.
 Two-electron integral symmetry is turned off.
 One-electron integrals computed using PRISM.
 NBasis=    26 RedAO= T EigKep=  1.60D-02  NBF=    26
 NBsUse=    26 1.00D-06 EigRej= -1.00D+00 NBFU=    26
 ExpMin= 1.83D-01 ExpMax= 1.72D+02 ExpMxC= 1.72D+02 IAcc=1 IRadAn=         1 AccDes= 0.00D+00
 Harris functional with IExCor=  402 and IRadAn=       1 diagonalized for initial guess.
 HarFok:  IExCor=  402 AccDes= 0.00D+00 IRadAn=         1 IDoV= 1 UseB2=F ITyADJ=14
 ICtDFT=  3500011 ScaDFX=  1.000000  1.000000  1.000000  1.000000
 FoFCou: FMM=F IPFlag=           0 FMFlag=      100000 FMFlg1=           0
         NFxFlg=           0 DoJE=T BraDBF=F KetDBF=T FulRan=T
         wScrn=  0.000000 ICntrl=     500 IOpCl=  0 I1Cent=   200000004 NGrid=           0
         NMat0=    1 NMatS0=      1 NMatT0=    0 NMatD0=    1 NMtDS0=    0 NMtDT0=    0
 Symmetry not used in FoFCou.
 Keep R1 ints in memory in canonical form, NReq=942464.
 Requested convergence on RMS density matrix=1.00D-08 within 128 cycles.
 Requested convergence on MAX density matrix=1.00D-06.
 Requested convergence on             energy=1.00D-06.
 No special actions if energy rises.
 Integral accuracy reduced to 1.0D-05 until final iterations.
 Initial convergence to 1.0D-05 achieved.  Increase integral accuracy.
 SCF Done:  E(RB3LYP) =  -78.1610487865     A.U. after    9 cycles
            NFock=  9  Conv=0.97D-08     -V/T= 2.0099
 DoSCS=F DFT=T ScalE2(SS,OS)=  1.000000  1.000000
 Range of M.O.s used for correlation:     1    26
 NBasis=    26 NAE=     8 NBE=     8 NFC=     0 NFV=     0
 NROrb=     26 NOA=     8 NOB=     8 NVA=    18 NVB=    18
 Symmetrizing basis deriv contribution to polar:
 IMax=3 JMax=2 DiffMx= 0.00D+00
 G2DrvN: will do     7 centers at a time, making    1 passes.
 Calling FoFCou, ICntrl=  3107 FMM=F I1Cent=   0 AccDes= 0.00D+00.
 End of G2Drv F.D. properties file   721 does not exist.
 End of G2Drv F.D. properties file   722 does not exist.
 End of G2Drv F.D. properties file   788 does not exist.
          IDoAtm=111111
          Differentiating once with respect to electric field.
                with respect to dipole field.
          Differentiating once with respect to nuclear coordinates.
 Keep R1 ints in memory in canonical form, NReq=921684.
          There are    21 degrees of freedom in the 1st order CPHF.  IDoFFX=6 NUNeed=     3.
     18 vectors produced by pass  0 Test12= 6.86D-16 4.76D-09 XBig12= 2.99D+01 4.69D+00.
 AX will form    18 AO Fock derivatives at one time.
     18 vectors produced by pass  1 Test12= 6.86D-16 4.76D-09 XBig12= 2.64D+00 6.90D-01.
     18 vectors produced by pass  2 Test12= 6.86D-16 4.76D-09 XBig12= 2.21D-02 8.21D-02.
     18 vectors produced by pass  3 Test12= 6.86D-16 4.76D-09 XBig12= 2.76D-05 2.30D-03.
     17 vectors produced by pass  4 Test12= 6.86D-16 4.76D-09 XBig12= 1.15D-08 5.25D-05.
      3 vectors produced by pass  5 Test12= 6.86D-16 4.76D-09 XBig12= 7.37D-12 1.20D-06.
      1 vectors produced by pass  6 Test12= 6.86D-16 4.76D-09 XBig12= 3.49D-15 2.10D-08.
 InvSVY:  IOpt=1 It=  1 EMax= 8.88D-16
 Solved reduced A of dimension    93 with    21 vectors.
 Isotropic polarizability for W=    0.000000       18.24 Bohr**3.
 End of Minotr F.D. properties file   721 does not exist.
 End of Minotr F.D. properties file   722 does not exist.
 End of Minotr F.D. properties file   788 does not exist.

 **********************************************************************

            Population analysis using the SCF density.

 **********************************************************************

 Alpha  occ. eigenvalues --  -10.11959 -10.11859  -0.75990  -0.57698  -0.46968
 Alpha  occ. eigenvalues --   -0.42344  -0.35250  -0.27064
 Alpha virt. eigenvalues --    0.02226   0.14486   0.15487   0.17958   0.27586
 Alpha virt. eigenvalues --    0.36863   0.66704   0.71150   0.73087   0.80091
 Alpha virt. eigenvalues --    0.83308   0.87322   1.01146   1.05915   1.09034
 Alpha virt. eigenvalues --    1.37671   1.39940   1.70485
          Condensed to atoms (all electrons):
               1          2          3          4          5          6
     1  C    5.138278   0.564940   0.381521   0.381521  -0.046465  -0.046464
     2  C    0.564940   5.138279  -0.046465  -0.046464   0.381521   0.381520
     3  H    0.381521  -0.046465   0.511121  -0.030983  -0.005092   0.003233
     4  H    0.381521  -0.046464  -0.030983   0.511120   0.003233  -0.005092
     5  H   -0.046465   0.381521  -0.005092   0.003233   0.511121  -0.030983
     6  H   -0.046464   0.381520   0.003233  -0.005092  -0.030983   0.511120
 Mulliken charges:
               1
     1  C   -0.373331
     2  C   -0.373331
     3  H    0.186666
     4  H    0.186665
     5  H    0.186665
     6  H    0.186666
 Sum of Mulliken charges =   0.00000
 Mulliken charges with hydrogens summed into heavy atoms:
               1
     1  C    0.000000
     2  C    0.000000
 APT charges:
               1
     1  C   -0.070796
     2  C   -0.070797
     3  H    0.035399
     4  H    0.035398
     5  H    0.035397
     6  H    0.035400
 Sum of APT charges =   0.00000
 APT charges with hydrogens summed into heavy atoms:
               1
     1  C    0.000000
     2  C    0.000000
 Electronic spatial extent (au):  <R**2>=             82.2828
 Charge=              0.0000 electrons
 Dipole moment (field-independent basis, Debye):
    X=              0.0000    Y=              0.0000    Z=              0.0000  Tot=              0.0000
 Quadrupole moment (field-independent basis, Debye-Ang):
   XX=            -11.9752   YY=            -12.1602   ZZ=            -15.2702
   XY=             -0.0011   XZ=             -0.0833   YZ=             -0.1437
 Traceless Quadrupole moment (field-independent basis, Debye-Ang):
   XX=              1.1600   YY=              0.9750   ZZ=             -2.1350
   XY=             -0.0011   XZ=             -0.0833   YZ=             -0.1437
 Octapole moment (field-independent basis, Debye-Ang**2):
  XXX=              0.0000  YYY=              0.0001  ZZZ=              0.0000  XYY=              0.0000
  XXY=              0.0000  XXZ=              0.0000  XZZ=              0.0000  YZZ=              0.0000
  YYZ=              0.0000  XYZ=              0.0000
 Hexadecapole moment (field-independent basis, Debye-Ang**3):
 XXXX=            -65.0795 YYYY=            -25.1351 ZZZZ=            -15.6595 XXXY=             -0.3903
 XXXZ=              0.5606 YYYX=             -0.1714 YYYZ=              0.1415 ZZZX=              0.7203
 ZZZY=              0.3092 XXYY=            -12.5533 XXZZ=            -14.5336 YYZZ=             -7.3866
 XXYZ=             -0.0864 YYXZ=              0.1295 ZZXY=             -0.0874
 N-N= 3.337556391796D+01 E-N=-2.471436668627D+02  KE= 7.739152351026D+01
  Exact polarizability:  29.348   0.128  19.097  -0.590  -0.597   6.262
 Approx polarizability:  45.482   0.290  23.367  -0.984  -0.758   7.144
 Calling FoFJK, ICntrl=    100127 FMM=F ISym2X=0 I1Cent= 0 IOpClX= 0 NMat=1 NMatS=1 NMatT=0.
 Full mass-weighted force constant matrix:
 Low frequencies ---  -19.9745   -0.0002    0.0004    0.0006   18.2919   31.0499
 Low frequencies ---  875.7393  990.8461  999.3229
 Diagonal vibrational polarizability:
        0.1293696       0.1524926       3.0371741
 Harmonic frequencies (cm**-1), IR intensities (KM/Mole), Raman scattering
 activities (A**4/AMU), depolarization ratios for plane and unpolarized
 incident light, reduced masses (AMU), force constants (mDyne/A),
 and normal coordinates:
                      1                      2                      3
                      A                      A                      A
 Frequencies --    875.7393               990.8461               999.3221
 Red. masses --      1.0440                 1.1607                 1.5211
 Frc consts  --      0.4717                 0.6714                 0.8950
 IR Inten    --      2.1533               111.0833                 0.0000
  Atom  AN      X      Y      Z        X      Y      Z        X      Y      Z
     1   6     0.00  -0.04   0.00     0.00   0.00   0.08     0.00   0.01   0.15
     2   6     0.00  -0.04   0.00     0.00   0.00   0.08     0.00  -0.01  -0.15
     3   1     0.43   0.25  -0.02    -0.02  -0.02  -0.49    -0.01  -0.02  -0.49
     4   1    -0.44   0.23   0.00    -0.01  -0.02  -0.50    -0.01  -0.02  -0.49
     5   1    -0.44   0.23   0.00    -0.01  -0.02  -0.50     0.01   0.02   0.49
     6   1     0.43   0.25  -0.02    -0.02  -0.02  -0.49     0.01   0.02   0.49
                      4                      5                      6
                      A                      A                      A
 Frequencies --   1080.8048              1286.2030              1428.3108
 Red. masses --      1.0078                 1.5320                 1.2760
 Frc consts  --      0.6936                 1.4932                 1.5337
 IR Inten    --      0.0029                 0.0000                 0.0000
  Atom  AN      X      Y      Z        X      Y      Z        X      Y      Z
     1   6     0.00   0.00   0.00     0.00   0.15  -0.01     0.11   0.00   0.00
     2   6     0.00   0.00   0.00     0.00  -0.15   0.01    -0.11   0.00   0.00
     3   1     0.01   0.02   0.50    -0.46  -0.15   0.02     0.45   0.19  -0.02
     4   1    -0.01  -0.02  -0.50     0.47  -0.14  -0.01     0.46  -0.18   0.00
     5   1    -0.01  -0.02  -0.50    -0.47   0.14   0.01    -0.46   0.18   0.00
     6   1     0.01   0.02   0.50     0.46   0.15  -0.02    -0.45  -0.19   0.02
                      7                      8                      9
                      A                      A                      A
 Frequencies --   1536.1397              1710.7340              3146.6732
 Red. masses --      1.1113                 2.8349                 1.0483
 Frc consts  --      1.5450                 4.8883                 6.1158
 IR Inten    --      7.9412                 0.0000                13.5908
  Atom  AN      X      Y      Z        X      Y      Z        X      Y      Z
     1   6     0.07   0.00   0.00     0.29   0.00  -0.01    -0.04   0.00   0.00
     2   6     0.07   0.00   0.00    -0.29   0.00   0.01    -0.04   0.00   0.00
     3   1    -0.40  -0.29   0.02    -0.25  -0.38   0.02     0.26  -0.42   0.01
     4   1    -0.41   0.28   0.00    -0.27   0.37  -0.01     0.25   0.43  -0.03
     5   1    -0.41   0.28   0.00     0.27  -0.37   0.01     0.25   0.43  -0.03
     6   1    -0.40  -0.29   0.02     0.25   0.38  -0.02     0.26  -0.42   0.01
                     10                     11                     12
                      A                      A                      A
 Frequencies --   3161.9819              3211.8976              3243.8337
 Red. masses --      1.0737                 1.1116                 1.1162
 Frc consts  --      6.3249                 6.7565                 6.9202
 IR Inten    --      0.0000                 0.0000                27.7739
  Atom  AN      X      Y      Z        X      Y      Z        X      Y      Z
     1   6     0.05   0.00   0.00     0.00  -0.07   0.00     0.00   0.07   0.00
     2   6    -0.05   0.00   0.00     0.00   0.07   0.00     0.00   0.07   0.00
     3   1    -0.26   0.42  -0.01    -0.27   0.41  -0.01     0.28  -0.41   0.01
     4   1    -0.25  -0.43   0.03     0.26   0.42  -0.03    -0.26  -0.42   0.03
     5   1     0.25   0.43  -0.03    -0.26  -0.42   0.03    -0.26  -0.42   0.03
     6   1     0.26  -0.42   0.01     0.27  -0.41   0.01     0.28  -0.41   0.01

 -------------------
 - Thermochemistry -
 -------------------
 Temperature   298.150 Kelvin.  Pressure   1.00000 Atm.
 Atom     1 has atomic number  6 and mass  12.00000
 Atom     2 has atomic number  6 and mass  12.00000
 Atom     3 has atomic number  1 and mass   1.00783
 Atom     4 has atomic number  1 and mass   1.00783
 Atom     5 has atomic number  1 and mass   1.00783
 Atom     6 has atomic number  1 and mass   1.00783
 Molecular mass:    28.03130 amu.
 Principal axes and moments of inertia in atomic units:
                           1         2         3
     Eigenvalues --    12.23215  59.95377  72.18591
           X            0.99957  -0.01514   0.02523
           Y            0.01397   0.99884   0.04603
           Z           -0.02590  -0.04565   0.99862
 This molecule is an asymmetric top.
 Rotational symmetry number  2.
 Rotational temperatures (Kelvin)      7.08083     1.44468     1.19987
 Rotational constants (GHZ):         147.54084    30.10222    25.00129
 Zero-point vibrational energy     135611.6 (Joules/Mol)
                                   32.41195 (Kcal/Mol)
 Vibrational temperatures:   1259.99  1425.60  1437.80  1555.04  1850.56
          (Kelvin)           2055.02  2210.16  2461.36  4527.36  4549.38
                             4621.20  4667.15
 
 Zero-point correction=                           0.051652 (Hartree/Particle)
 Thermal correction to Energy=                    0.054670
 Thermal correction to Enthalpy=                  0.055614
 Thermal correction to Gibbs Free Energy=         0.030132
 Sum of electronic and zero-point Energies=            -78.109397
 Sum of electronic and thermal Energies=               -78.106379
 Sum of electronic and thermal Enthalpies=             -78.105434
 Sum of electronic and thermal Free Energies=          -78.130917
 
                     E (Thermal)             CV                S
                      KCal/Mol        Cal/Mol-Kelvin    Cal/Mol-Kelvin
 Total                   34.306              7.910             53.632
 Electronic               0.000              0.000              0.000
 Translational            0.889              2.981             35.927
 Rotational               0.889              2.981             17.233
 Vibrational             32.529              1.949              0.472
                       Q            Log10(Q)             Ln(Q)
 Total Bot       0.138084D-13        -13.859855        -31.913497
 Total V=0       0.791111D+10          9.898237         22.791534
 Vib (Bot)       0.181770D-23        -23.740478        -54.664470
 Vib (V=0)       0.104139D+01          0.017615          0.040560
 Electronic      0.100000D+01          0.000000          0.000000
 Translational   0.583338D+07          6.765920         15.579107
 Rotational      0.130227D+04          3.114702          7.171867
 -------------------------------------------------------------------
 Center     Atomic                   Forces (Hartrees/Bohr)
 Number     Number              X              Y              Z
 -------------------------------------------------------------------
      1        6           0.000000027    0.000000070    0.000001082
      2        6          -0.000000031    0.000000196   -0.000001096
      3        1          -0.000000384   -0.000000110    0.000003781
      4        1           0.000000494   -0.000000257    0.000000283
      5        1           0.000000164    0.000000139   -0.000000175
      6        1          -0.000000270   -0.000000037   -0.000003876
 -------------------------------------------------------------------
 Cartesian Forces:  Max     0.000003876 RMS     0.000001342

 GradGradGradGradGradGradGradGradGradGradGradGradGradGradGradGradGradGrad
 Berny optimization.
 Search for a local minimum.
 Step number   1 out of a maximum of    2
 All quantities printed in internal units (Hartrees-Bohrs-Radians)
 Second derivative matrix not updated -- analytic derivatives used.
 The second derivative matrix:
                          X1        Y1        Z1        X2        Y2
           X1           0.87463
           Y1           0.00271   0.63780
           Z1          -0.01936  -0.02412   0.11707
           X2          -0.57615  -0.00631   0.01355   0.87463
           Y2          -0.00631  -0.11903   0.00329   0.00270   0.63780
           Z2           0.01355   0.00329  -0.05185  -0.01936  -0.02412
           X3          -0.13649   0.12043  -0.00309  -0.01688   0.03265
           Y3           0.12645  -0.25960   0.00700  -0.00370   0.00401
           Z3          -0.00337   0.00716  -0.03872   0.00076  -0.00072
           X4          -0.12913  -0.11627   0.00771  -0.01598  -0.03320
           Y4          -0.12229  -0.26637   0.01357   0.00314   0.00319
           Z4           0.00801   0.01342  -0.03923   0.00041   0.00098
           X5          -0.01598  -0.03320   0.00210  -0.12913  -0.11626
           Y5           0.00314   0.00319   0.00007  -0.12229  -0.26637
           Z5           0.00041   0.00098   0.00633   0.00801   0.01342
           X6          -0.01688   0.03265  -0.00092  -0.13650   0.12043
           Y6          -0.00370   0.00401   0.00020   0.12645  -0.25959
           Z6           0.00076  -0.00072   0.00640  -0.00337   0.00716
                          Z2        X3        Y3        Z3        X4
           Z2           0.11707
           X3          -0.00092   0.14667
           Y3           0.00020  -0.13732   0.27087
           Z3           0.00640   0.00328  -0.00786   0.02549
           X4           0.00210   0.00976   0.01526  -0.00088   0.13846
           Y4           0.00007  -0.01444  -0.01806   0.00133   0.13305
           Z4           0.00633   0.00049   0.00058   0.00285  -0.00907
           X5           0.00771   0.00135   0.00030  -0.00028  -0.00446
           Y5           0.01357  -0.00032   0.00140  -0.00048   0.00086
           Z5          -0.03923  -0.00025  -0.00049  -0.00911   0.00041
           X6          -0.00309  -0.00441  -0.00099   0.00049   0.00135
           Y6           0.00700  -0.00099   0.00138   0.00057   0.00030
           Z6          -0.03872   0.00049   0.00057   0.01309  -0.00028
                          Y4        Z4        X5        Y5        Z5
           Y4           0.27841
           Z4          -0.01501   0.02607
           X5           0.00086   0.00041   0.13846
           Y5           0.00143   0.00052   0.13305   0.27841
           Z5           0.00052   0.01309  -0.00907  -0.01501   0.02607
           X6          -0.00032  -0.00025   0.00976  -0.01444   0.00049
           Y6           0.00140  -0.00049   0.01526  -0.01806   0.00058
           Z6          -0.00048  -0.00911  -0.00088   0.00133   0.00285
                          X6        Y6        Z6
           X6           0.14667
           Y6          -0.13732   0.27087
           Z6           0.00328  -0.00786   0.02549
 ITU=  0
     Eigenvalues ---    0.03378   0.04455   0.07934   0.08376   0.13697
     Eigenvalues ---    0.15003   0.16388   0.31305   0.52576   0.73641
     Eigenvalues ---    0.90597   1.50378
 Angle between quadratic step and forces=  76.39 degrees.
 Linear search not attempted -- first point.
 TrRot=  0.000000  0.000001  0.000000  0.000000 -0.000001  0.000000
 Variable       Old X    -DE/DX   Delta X   Delta X   Delta X     New X
                                 (Linear)    (Quad)   (Total)
    X1       -1.25557   0.00000   0.00000   0.00000   0.00000  -1.25557
    Y1       -0.01755   0.00000   0.00000   0.00000   0.00000  -0.01754
    Z1        0.03254   0.00000   0.00000  -0.00001  -0.00001   0.03253
    X2        1.25557   0.00000   0.00000   0.00000   0.00000   1.25557
    Y2        0.01754   0.00000   0.00000   0.00000   0.00000   0.01754
    Z2       -0.03254   0.00000   0.00000   0.00001   0.00001  -0.03253
    X3       -2.36601   0.00000   0.00000  -0.00001  -0.00001  -2.36602
    Y3        1.70722   0.00000   0.00000   0.00000   0.00000   1.70722
    Z3       -0.01894   0.00000   0.00000   0.00000   0.00000  -0.01894
    X4       -2.31329   0.00000   0.00000   0.00001   0.00001  -2.31328
    Y4       -1.77259   0.00000   0.00000   0.00000   0.00000  -1.77259
    Z4        0.14011   0.00000   0.00000   0.00000   0.00000   0.14011
    X5        2.31327   0.00000   0.00000   0.00001   0.00001   2.31328
    Y5        1.77260   0.00000   0.00000   0.00000   0.00000   1.77259
    Z5       -0.14011   0.00000   0.00000   0.00000   0.00000  -0.14011
    X6        2.36602   0.00000   0.00000  -0.00001  -0.00001   2.36602
    Y6       -1.70722   0.00000   0.00000   0.00000   0.00000  -1.70722
    Z6        0.01894   0.00000   0.00000   0.00000   0.00000   0.01894
         Item               Value     Threshold  Converged?
 Maximum Force            0.000004     0.000450     YES
 RMS     Force            0.000001     0.000300     YES
 Maximum Displacement     0.000010     0.001800     YES
 RMS     Displacement     0.000005     0.001200     YES
 Predicted change in Energy=-1.173142D-12
 Optimization completed.
    -- Stationary point found.
 GradGradGradGradGradGradGradGradGradGradGradGradGradGradGradGradGradGrad

 1\1\GINC-ANT01\Freq\RB3LYP\3-21G\C2H4\GNOVIKOV\13-Oct-2017\0\\# B3lyp/
 3-21g nosym freq\\\0,1\C,-0.6644174095,-0.0092849173,0.017217849\C,0.6
 644173947,0.009280825,-0.0172181922\H,-1.2520364524,0.9034221164,-0.01
 00234314\H,-1.2241382882,-0.9380155033,0.0741419853\H,1.2241282105,0.9
 380173064,-0.0741437933\H,1.2520464407,-0.9034199142,0.0100239323\\Ver
 sion=AM64L-G09RevD.01\HF=-78.1610488\RMSD=9.706e-09\RMSF=1.342e-06\Zer
 oPoint=0.0516517\Thermal=0.0546702\Dipole=-0.0000006,0.0000011,0.\Dipo
 leDeriv=-0.0112411,-0.0022143,-0.0075292,-0.002212,0.111337,-0.019524,
 -0.0075149,-0.0195238,-0.3124841,-0.011242,-0.0022163,-0.0075291,-0.00
 22164,0.1113366,-0.0195245,-0.0075148,-0.0195243,-0.3124849,0.003534,0
 .0646576,0.0008883,0.0753332,-0.0537442,0.0077998,0.0003914,0.0080711,
 0.1564059,0.0077075,-0.0624435,0.0066409,-0.0731192,-0.0575927,0.01172
 42,0.0071235,0.0114527,0.1560785,0.0077073,-0.0624422,0.0066409,-0.073
 1189,-0.0575949,0.0117245,0.0071236,0.011453,0.1560779,0.0035343,0.064
 6588,0.0008882,0.0753332,-0.0537418,0.0077999,0.0003913,0.0080712,0.15
 64067\Polar=29.3483875,0.1279239,19.0971339,-0.5903208,-0.5967614,6.26
 2033\PG=C02 [X(C2H4)]\NImag=0\\0.87463461,0.00270556,0.63779586,-0.019
 35631,-0.02412283,0.11707225,-0.57615231,-0.00631133,0.01354833,0.8746
 3468,-0.00631197,-0.11903007,0.00329179,0.00270253,0.63779558,0.013548
 36,0.00329182,-0.05184675,-0.01935619,-0.02412335,0.11707226,-0.136492
 20,0.12042667,-0.00309015,-0.01688087,0.03264645,-0.00092070,0.1466673
 7,0.12645246,-0.25959674,0.00699814,-0.00369951,0.00400991,0.00020011,
 -0.13731975,0.27087164,-0.00337209,0.00715519,-0.03872042,0.00075723,-
 0.00072208,0.00639777,0.00328303,-0.00785575,0.02548898,-0.12912781,-0
 .11626637,0.00771401,-0.01598145,-0.03320027,0.00210480,0.00976484,0.0
 1526243,-0.00087746,0.13845977,-0.12229075,-0.26636512,0.01356727,0.00
 314439,0.00318618,0.00006549,-0.01443613,-0.01806349,0.00133211,0.1330
 4830,0.27841224,0.00800977,0.01342127,-0.03922800,0.00041304,0.0009766
 1,0.00632515,0.00049069,0.00058245,0.00284883,-0.00906751,-0.01500550,
 0.02606559,-0.01598199,-0.03320061,0.00210483,-0.12912501,-0.11626479,
 0.00771405,0.00134633,0.00029792,-0.00027902,-0.00446170,0.00085794,0.
 00040518,0.13845754,0.00314428,0.00318589,0.00006552,-0.12228953,-0.26
 636763,0.01356765,-0.00032368,0.00139810,-0.00047597,0.00085792,0.0014
 3218,0.00051660,0.13304682,0.27841492,0.00041301,0.00097663,0.00632519
 ,0.00800988,0.01342168,-0.03922792,-0.00025119,-0.00049142,-0.00910565
 ,0.00040517,0.00051658,0.01309397,-0.00906757,-0.01500592,0.02606558,-
 0.01688030,0.03264609,-0.00092070,-0.13649504,0.12042805,-0.00309032,-
 0.00440547,-0.00099355,0.00048831,0.00134636,-0.00032375,-0.00025117,0
 .00976482,-0.01443581,0.00049068,0.14666964,-0.00369958,0.00401019,0.0
 0020011,0.12645346,-0.25959398,0.00699827,-0.00099357,0.00138058,0.000
 56649,0.00029799,0.00139802,-0.00049143,0.01526271,-0.01806346,0.00058
 245,-0.13732102,0.27086864,0.00075727,-0.00072208,0.00639772,-0.003372
 29,0.00715535,-0.03872051,0.00048832,0.00056647,0.01309048,-0.00027902
 ,-0.00047594,-0.00910555,-0.00087748,0.00133211,0.00284882,0.00328320,
 -0.00785590,0.02548904\\-0.00000003,-0.00000007,-0.00000108,0.00000003
 ,-0.00000020,0.00000110,0.00000038,0.00000011,-0.00000378,-0.00000049,
 0.00000026,-0.00000028,-0.00000016,-0.00000014,0.00000018,0.00000027,0
 .00000004,0.00000388\\\@


 Money is a good servant but a bad master.
                        -- French Proverb
 Job cpu time:       0 days  0 hours  0 minutes 20.4 seconds.
 File lengths (MBytes):  RWF=     18 Int=      0 D2E=      0 Chk=      1 Scr=      5
 Normal termination of Gaussian 09 at Fri Oct 13 14:41:20 2017.
