                                                                        
Freq      RB3LYP                                                      3-21G               
Number of atoms                            I                6
Info1-9                                    I   N=           9
          19          19           0           0           0         100
           6          18        -502
Charge                                     I                0
Multiplicity                               I                1
Number of electrons                        I               16
Number of alpha electrons                  I                8
Number of beta electrons                   I                8
Number of basis functions                  I               26
Number of independent functions            I               26
Number of point charges in /Mol/           I                0
Number of translation vectors              I                0
Atomic numbers                             I   N=           6
           6           6           1           1           1           1
Nuclear charges                            R   N=           6
  6.00000000E+00  6.00000000E+00  1.00000000E+00  1.00000000E+00  1.00000000E+00
  1.00000000E+00
Current cartesian coordinates              R   N=          18
 -1.25538963E+00  1.99655085E-02  3.79200230E-02  1.25539015E+00 -1.99389815E-02
 -3.79169570E-02 -2.30388694E+00  1.75864460E+00  3.34778300E-01 -2.37453769E+00
 -1.68429454E+00 -1.93417475E-01  2.37460343E+00  1.68428014E+00  1.93412252E-01
  2.30382048E+00 -1.75865689E+00 -3.34779262E-01
Force Field                                I                0
Int Atom Types                             I   N=           6
           0           0           0           0           0           0
MM charges                                 R   N=           6
  0.00000000E+00  0.00000000E+00  0.00000000E+00  0.00000000E+00  0.00000000E+00
  0.00000000E+00
Integer atomic weights                     I   N=           6
          12          12           1           1           1           1
Real atomic weights                        R   N=           6
  1.20000000E+01  1.20000000E+01  1.00782504E+00  1.00782504E+00  1.00782504E+00
  1.00782504E+00
Atom fragment info                         I   N=           6
           0           0           0           0           0           0
Atom residue num                           I   N=           6
           0           0           0           0           0           0
Nuclear spins                              I   N=           6
           0           0           1           1           1           1
Nuclear ZEff                               R   N=           6
 -3.60000000E+00 -3.60000000E+00 -1.00000000E+00 -1.00000000E+00 -1.00000000E+00
 -1.00000000E+00
Nuclear ZNuc                               R   N=           6
  6.00000000E+00  6.00000000E+00  1.00000000E+00  1.00000000E+00  1.00000000E+00
  1.00000000E+00
Nuclear QMom                               R   N=           6
  0.00000000E+00  0.00000000E+00  0.00000000E+00  0.00000000E+00  0.00000000E+00
  0.00000000E+00
Nuclear GFac                               R   N=           6
  0.00000000E+00  0.00000000E+00  2.79284600E+00  2.79284600E+00  2.79284600E+00
  2.79284600E+00
MicOpt                                     I   N=           6
          -1          -1          -1          -1          -1          -1
Number of contracted shells                I               14
Number of primitive shells                 I               24
Pure/Cartesian d shells                    I                1
Pure/Cartesian f shells                    I                0
Highest angular momentum                   I                1
Largest degree of contraction              I                3
Shell types                                I   N=          14
           0          -1          -1           0          -1          -1
           0           0           0           0           0           0
           0           0
Number of primitives per shell             I   N=          14
           3           2           1           3           2           1
           2           1           2           1           2           1
           2           1
Shell to atom map                          I   N=          14
           1           1           1           2           2           2
           3           3           4           4           5           5
           6           6
Primitive exponents                        R   N=          24
  1.72256000E+02  2.59109000E+01  5.53335000E+00  3.66498000E+00  7.70545000E-01
  1.95857000E-01  1.72256000E+02  2.59109000E+01  5.53335000E+00  3.66498000E+00
  7.70545000E-01  1.95857000E-01  5.44717800E+00  8.24547240E-01  1.83191580E-01
  5.44717800E+00  8.24547240E-01  1.83191580E-01  5.44717800E+00  8.24547240E-01
  1.83191580E-01  5.44717800E+00  8.24547240E-01  1.83191580E-01
Contraction coefficients                   R   N=          24
  6.17669074E-02  3.58794043E-01  7.00713084E-01 -3.95895162E-01  1.21583436E+00
  1.00000000E+00  6.17669074E-02  3.58794043E-01  7.00713084E-01 -3.95895162E-01
  1.21583436E+00  1.00000000E+00  1.56284979E-01  9.04690877E-01  1.00000000E+00
  1.56284979E-01  9.04690877E-01  1.00000000E+00  1.56284979E-01  9.04690877E-01
  1.00000000E+00  1.56284979E-01  9.04690877E-01  1.00000000E+00
P(S=P) Contraction coefficients            R   N=          24
  0.00000000E+00  0.00000000E+00  0.00000000E+00  2.36459947E-01  8.60618806E-01
  1.00000000E+00  0.00000000E+00  0.00000000E+00  0.00000000E+00  2.36459947E-01
  8.60618806E-01  1.00000000E+00  0.00000000E+00  0.00000000E+00  0.00000000E+00
  0.00000000E+00  0.00000000E+00  0.00000000E+00  0.00000000E+00  0.00000000E+00
  0.00000000E+00  0.00000000E+00  0.00000000E+00  0.00000000E+00
Coordinates of each shell                  R   N=          42
 -1.25538963E+00  1.99655085E-02  3.79200230E-02 -1.25538963E+00  1.99655085E-02
  3.79200230E-02 -1.25538963E+00  1.99655085E-02  3.79200230E-02  1.25539015E+00
 -1.99389815E-02 -3.79169570E-02  1.25539015E+00 -1.99389815E-02 -3.79169570E-02
  1.25539015E+00 -1.99389815E-02 -3.79169570E-02 -2.30388694E+00  1.75864460E+00
  3.34778300E-01 -2.30388694E+00  1.75864460E+00  3.34778300E-01 -2.37453769E+00
 -1.68429454E+00 -1.93417475E-01 -2.37453769E+00 -1.68429454E+00 -1.93417475E-01
  2.37460343E+00  1.68428014E+00  1.93412252E-01  2.37460343E+00  1.68428014E+00
  1.93412252E-01  2.30382048E+00 -1.75865689E+00 -3.34779262E-01  2.30382048E+00
 -1.75865689E+00 -3.34779262E-01
Constraint Structure                       R   N=          18
 -1.25538963E+00  1.99655085E-02  3.79200230E-02  1.25539015E+00 -1.99389815E-02
 -3.79169570E-02 -2.30388694E+00  1.75864460E+00  3.34778300E-01 -2.37453769E+00
 -1.68429454E+00 -1.93417475E-01  2.37460343E+00  1.68428014E+00  1.93412252E-01
  2.30382048E+00 -1.75865689E+00 -3.34779262E-01
Num ILSW                                   I              100
ILSW                                       I   N=         100
           0           1           0           0           2           0
           0           0           0           0         402          -1
           0           0           0           0           2           0
           0           0           1           0           1           0
           1           1           0           0           0           0
           0           0      100000           0          -1           0
           0           0           0           0           0           0
           0           0           0           1           0           0
           0           0           1           0           0           0
           0           0           4          41           0           0
           0           0           5           0           0           0
           0           0           0           0           0           0
           0           0           0           0           0           0
           0           0           0           0           0           0
           0           0           0           0           0           0
           0           0           0           0           0           0
           0           0           0           0
Num RLSW                                   I               41
RLSW                                       R   N=          41
  8.00000000E-01  7.20000000E-01  1.00000000E+00  8.10000000E-01  2.00000000E-01
  0.00000000E+00  0.00000000E+00  1.00000000E+00  0.00000000E+00  0.00000000E+00
  0.00000000E+00  0.00000000E+00  1.00000000E+00  0.00000000E+00  0.00000000E+00
  0.00000000E+00  0.00000000E+00  1.00000000E+00  0.00000000E+00  0.00000000E+00
  0.00000000E+00  0.00000000E+00  1.00000000E+00  0.00000000E+00  0.00000000E+00
  0.00000000E+00  0.00000000E+00  1.00000000E+00  0.00000000E+00  0.00000000E+00
  0.00000000E+00  0.00000000E+00  1.00000000E+00  0.00000000E+00  0.00000000E+00
  0.00000000E+00  0.00000000E+00  0.00000000E+00  1.00000000E+00  1.00000000E+00
  0.00000000E+00
MxBond                                     I                3
NBond                                      I   N=           6
           3           3           1           1           1           1
IBond                                      I   N=          18
           2           3           4           1           5           6
           1           0           0           1           0           0
           2           0           0           2           0           0
RBond                                      R   N=          18
  2.00000000E+00  1.00000000E+00  1.00000000E+00  2.00000000E+00  1.00000000E+00
  1.00000000E+00  1.00000000E+00  0.00000000E+00  0.00000000E+00  1.00000000E+00
  0.00000000E+00  0.00000000E+00  1.00000000E+00  0.00000000E+00  0.00000000E+00
  1.00000000E+00  0.00000000E+00  0.00000000E+00
Virial Ratio                               R      2.009943112537345E+00
SCF Energy                                 R     -7.816104747421542E+01
Total Energy                               R     -7.816104747421542E+01
RMS Force                                  R      1.450135426221703E-06
RMS Density                                R      4.608764000172943E-09
External E-field                           R   N=          35
  0.00000000E+00  0.00000000E+00  0.00000000E+00  0.00000000E+00  0.00000000E+00
  0.00000000E+00  0.00000000E+00  0.00000000E+00  0.00000000E+00  0.00000000E+00
  0.00000000E+00  0.00000000E+00  0.00000000E+00  0.00000000E+00  0.00000000E+00
  0.00000000E+00  0.00000000E+00  0.00000000E+00  0.00000000E+00  0.00000000E+00
  0.00000000E+00  0.00000000E+00  0.00000000E+00  0.00000000E+00  0.00000000E+00
  0.00000000E+00  0.00000000E+00  0.00000000E+00  0.00000000E+00  0.00000000E+00
  0.00000000E+00  0.00000000E+00  0.00000000E+00  0.00000000E+00  0.00000000E+00
IOpCl                                      I                0
IROHF                                      I                0
Alpha Orbital Energies                     R   N=          26
 -1.01195867E+01 -1.01185898E+01 -7.59901191E-01 -5.76976131E-01 -4.69691823E-01
 -4.23422354E-01 -3.52509334E-01 -2.70640694E-01  2.22575965E-02  1.44850846E-01
  1.54874901E-01  1.79583263E-01  2.75859435E-01  3.68620152E-01  6.67030397E-01
  7.11519464E-01  7.30872568E-01  8.00912748E-01  8.33077334E-01  8.73201834E-01
  1.01146575E+00  1.05915509E+00  1.09033835E+00  1.37676966E+00  1.39940646E+00
  1.70485278E+00
Alpha MO coefficients                      R   N=         676
 -6.96885498E-01 -7.83411859E-02 -2.44155478E-03  3.88259007E-05  7.37188089E-05
  7.41792226E-02  1.69476178E-02 -2.69736278E-04 -5.11834407E-04  6.96892988E-01
  7.83419594E-02 -2.44153429E-03  3.86947094E-05  7.36979854E-05 -7.41796053E-02
  1.69475882E-02 -2.68621889E-04 -5.11661663E-04  5.47469161E-04 -8.77435667E-03
  5.47345567E-04 -8.77461883E-03 -5.47501246E-04  8.77422079E-03 -5.47360892E-04
  8.77498610E-03  6.96765114E-01  7.19394297E-02 -2.15795114E-03  3.42792031E-05
  6.52129656E-05 -3.55444944E-02  4.89072868E-03 -7.76858101E-05 -1.47919449E-04
  6.96757622E-01  7.19385876E-02  2.15797526E-03 -3.43889878E-05 -6.52306039E-05
 -3.55436979E-02 -4.89090132E-03  7.81583798E-05  1.47997226E-04 -2.18590570E-03
  1.07259064E-02 -2.18581680E-03  1.07257793E-02 -2.18587847E-03  1.07255221E-02
 -2.18583279E-03  1.07259763E-02 -1.68114128E-01  1.81876892E-01  1.05312556E-01
 -1.67471063E-03 -3.18021957E-03  3.70637397E-01  1.46058205E-02 -2.34211769E-04
 -4.40514915E-04 -1.68114136E-01  1.81876901E-01 -1.05312623E-01  1.67111658E-03
  3.17966630E-03  3.70637426E-01 -1.46059022E-02  2.30277718E-04  4.39910131E-04
  7.78670700E-02  6.30294697E-03  7.78672005E-02  6.30231471E-03  7.78655167E-02
  6.30282428E-03  7.78687744E-02  6.30243864E-03 -1.30222876E-01  1.34290047E-01
 -1.45611266E-01  2.31584612E-03  4.40127674E-03  4.21905287E-01 -6.13483342E-02
  9.75398327E-04  1.85481054E-03  1.30222867E-01 -1.34290038E-01 -1.45611274E-01
  2.31663483E-03  4.40140138E-03 -4.21905265E-01 -6.13483153E-02  9.76778182E-04
  1.85502536E-03  1.36162659E-01  6.62196346E-02  1.36159398E-01  6.62179817E-02
 -1.36161637E-01 -6.62199137E-02 -1.36160426E-01 -6.62177030E-02 -7.29345370E-07
  9.36338624E-07  5.84981439E-03  2.85386676E-01  4.37823205E-02  3.72576137E-06
  3.81989226E-03  1.86369201E-01  2.85910413E-02 -2.18200574E-06  1.90772082E-06
  5.87018635E-03  2.85386392E-01  4.37816995E-02  9.44245556E-06  3.83350785E-03
  1.86369011E-01  2.85906259E-02  1.44610804E-01  1.10257487E-01 -1.44605500E-01
 -1.10254928E-01  1.44610855E-01  1.10258324E-01 -1.44605499E-01 -1.10254124E-01
 -9.74028383E-03  2.08285617E-02  3.69523300E-01 -5.85973057E-03 -1.11614237E-02
 -1.33202756E-02  2.11502815E-01 -3.35104797E-03 -6.38860166E-03 -9.74028820E-03
  2.08285652E-02 -3.69522897E-01  5.87920051E-03  1.11644179E-02 -1.33202515E-02
 -2.11502551E-01  3.36398894E-03  6.39059195E-03 -1.19115455E-01 -1.15967492E-01
 -1.19127255E-01 -1.15977213E-01 -1.19122812E-01 -1.15972483E-01 -1.19119885E-01
 -1.15972209E-01  1.50352858E-06 -1.70692078E-06  5.39446970E-03  2.63222397E-01
  4.03823709E-02 -7.22670200E-06  4.29340640E-03  2.09446988E-01  3.21329464E-02
  1.89335309E-07 -3.75897515E-07 -5.39846201E-03 -2.63222313E-01 -4.03821824E-02
  1.73972850E-06 -4.29682520E-03 -2.09446915E-01 -3.21327869E-02  1.85521036E-01
  1.88198751E-01 -1.85518677E-01 -1.88195951E-01 -1.85516040E-01 -1.88194142E-01
  1.85523640E-01  1.88200517E-01  1.66532551E-06 -1.63750947E-06  9.50102523E-03
 -5.26958309E-02  3.42221670E-01 -6.36685166E-06  9.73148809E-03 -5.39754590E-02
  3.50515956E-01 -1.66660896E-06  1.63838982E-06  9.50103590E-03 -5.26957770E-02
  3.42221687E-01  6.37300723E-06  9.73149612E-03 -5.39754116E-02  3.50515975E-01
  9.93164709E-07  1.88624798E-06  1.77572234E-08 -1.35071428E-06  1.18507308E-08
  1.39113696E-06 -1.02216114E-06 -1.92244552E-06  1.62747160E-06 -5.70657862E-07
  9.97999181E-03 -5.53343834E-02  3.59348539E-01 -1.43535609E-05  1.86136654E-02
 -1.03215586E-01  6.70321043E-01  1.63141745E-06 -5.74298409E-07 -9.97999657E-03
  5.53343495E-02 -3.59348539E-01 -1.43757367E-05 -1.86136816E-02  1.03215514E-01
 -6.70321044E-01  1.95220559E-06  4.03340959E-06  2.83046525E-06  7.57705171E-06
  2.85203429E-06  7.64848134E-06  1.93957144E-06  3.98892743E-06 -9.49560281E-02
  5.34986677E-02 -1.63046152E-01  2.55256989E-03  4.92432955E-03  1.31579088E+00
 -5.84208005E-01  9.18656598E-03  1.76541532E-02 -9.49560101E-02  5.34986558E-02
  1.63044578E-01 -2.62884198E-03 -4.93603569E-03  1.31579074E+00  5.84203469E-01
 -9.40625562E-03 -1.76878725E-02 -4.08164997E-02 -9.13484237E-01 -4.08370850E-02
 -9.13722206E-01 -4.08153559E-02 -9.13469918E-01 -4.08382131E-02 -9.13736361E-01
  3.53819272E-06 -3.18499202E-07 -5.25242226E-03 -2.57042883E-01 -3.94358926E-02
 -9.01780949E-05 -1.48068872E-02 -7.25177051E-01 -1.11254338E-01  2.27416260E-05
 -1.28659678E-05 -5.31130366E-03 -2.57041936E-01 -3.94340666E-02 -2.90888784E-04
 -1.49983174E-02 -7.25174021E-01 -1.11248407E-01  7.92891360E-02  9.32695666E-01
 -7.92859137E-02 -9.32547717E-01  7.92986244E-02  9.32805849E-01 -7.92764242E-02
 -9.32437551E-01 -1.28182844E-01  7.20400538E-02 -9.98029144E-02  1.60841474E-03
  3.02183342E-03  1.59748969E+00 -2.17483413E-01  3.53119621E-03  6.59060563E-03
  1.28182854E-01 -7.20400629E-02 -9.98030869E-02  1.60029978E-03  3.02059969E-03
 -1.59748988E+00 -2.17484232E-01  3.49408485E-03  6.58495254E-03 -5.52621815E-02
 -9.31615857E-01 -5.52552205E-02 -9.31436763E-01  5.52546250E-02  9.31477596E-01
  5.52627769E-02  9.31575273E-01  1.12839000E-06  1.60511756E-06  6.19841062E-03
  3.01412580E-01  4.62400507E-02 -3.28810140E-05  3.02585980E-02  1.47377307E+00
  2.26097116E-01 -5.81740678E-07 -3.21697754E-07 -6.18900876E-03 -3.01412747E-01
 -4.62403139E-02  2.88850355E-05 -3.02628562E-02 -1.47377308E+00 -2.26096940E-01
  1.81521146E-02 -1.28648588E+00 -1.81459234E-02  1.28653624E+00 -1.81500453E-02
  1.28648825E+00  1.81480107E-02 -1.28653407E+00 -9.59979682E-02  9.57365859E-03
  2.07812334E-01 -3.30345323E-03 -6.27863373E-03  2.50453344E+00  2.49627854E+00
 -3.96968785E-02 -7.54074836E-02  9.59979679E-02 -9.57366002E-03  2.07812463E-01
 -3.29661485E-03 -6.27758854E-03 -2.50453342E+00  2.49627956E+00 -3.96475458E-02
 -7.53999322E-02  6.79906881E-02  4.18441581E-01  6.79935318E-02  4.18391103E-01
 -6.79831297E-02 -4.18470693E-01 -6.80011166E-02 -4.18361967E-01 -1.72536792E-02
 -1.01483203E-01 -6.57949228E-01  1.04265174E-02  1.98716134E-02 -4.74728508E-01
  1.05677047E+00 -1.67668771E-02 -3.19246270E-02 -1.72536689E-02 -1.01483195E-01
  6.57947423E-01 -1.05172714E-02 -1.98855325E-02 -4.74728632E-01 -1.05676809E+00
  1.68798163E-02  3.19419529E-02  8.68549200E-02  1.91525944E-01  8.69172337E-02
  1.91494010E-01  8.68417073E-02  1.91535158E-01  8.69305277E-02  1.91484715E-01
  1.24979279E-06  1.86387770E-06 -8.98408338E-03 -4.40207378E-01 -6.74838093E-02
  1.08212646E-04  1.45480412E-02  7.11774167E-01  1.09157849E-01  2.19172189E-06
 -3.34653232E-06 -9.10689994E-03 -4.40205412E-01 -6.74801389E-02  1.06522234E-05
  1.47755659E-02  7.11770700E-01  1.09150975E-01 -4.29029240E-01  7.54107126E-03
  4.29011327E-01 -7.57450806E-03 -4.29048721E-01  7.54787700E-03  4.28991827E-01
 -7.56747838E-03  7.37835860E-07 -2.32756890E-06  2.06569837E-02 -1.14534948E-01
  7.43994171E-01 -2.76518730E-06 -1.62508271E-02  9.01183499E-02 -5.85555384E-01
 -7.39218096E-07  2.33223265E-06  2.06569921E-02 -1.14534895E-01  7.43994242E-01
  2.77091092E-06 -1.62508318E-02  9.01183099E-02 -5.85555476E-01  3.36143797E-05
  2.04380399E-06 -2.66321221E-05  5.91938866E-06  2.66214902E-05 -5.93122521E-06
 -3.36094265E-05 -2.04423699E-06 -3.56278037E-07  4.32664149E-06 -2.11072838E-02
  1.17083157E-01 -7.60372950E-01  1.32886699E-06  2.74712825E-02 -1.52383417E-01
  9.89649900E-01 -3.54456381E-07  4.32824246E-06  2.11073084E-02 -1.17083141E-01
  7.60372888E-01  1.33196183E-06 -2.74712945E-02  1.52383443E-01 -9.89649847E-01
  4.02523297E-06 -9.37920998E-06  5.46331217E-06 -4.69785416E-06  5.43521611E-06
 -4.71853339E-06  4.07252562E-06 -9.38052291E-06  8.26965608E-02 -2.82851378E-02
 -6.15746431E-01  9.78090975E-03  1.85963961E-02  3.48077932E-03  7.40465112E-01
 -1.17576208E-02 -2.23675918E-02 -8.26965661E-02  2.82850863E-02 -6.15745559E-01
  9.81906108E-03  1.86022698E-02 -3.48075773E-03  7.40463463E-01 -1.18330155E-02
 -2.23792069E-02  4.29652510E-01 -5.98571273E-02  4.29617869E-01 -5.98296892E-02
 -4.29641631E-01  5.98789849E-02 -4.29628829E-01  5.98078843E-02  3.36006000E-02
  2.80711021E-01  1.56893889E-01 -2.48459307E-03 -4.73345459E-03 -3.29620696E-01
  9.99716473E-02 -1.61217014E-03 -3.04305264E-03  3.36005992E-02  2.80711039E-01
 -1.56893931E-01  2.48459510E-03  4.73346419E-03 -3.29620899E-01 -9.99709605E-02
  1.63820561E-03  3.04704327E-03  6.21715091E-01 -2.98111253E-01  6.21758145E-01
 -2.98172092E-01  6.21731331E-01 -2.98166783E-01  6.21741809E-01 -2.98116494E-01
 -1.63999931E-06  9.37136806E-06 -1.56577896E-02 -7.63984355E-01 -1.17205556E-01
 -5.38473670E-05  3.59098424E-02  1.75127430E+00  2.68669409E-01  1.73590967E-06
  8.31779643E-06  1.57216248E-02  7.63983133E-01  1.17203532E-01  1.00676443E-05
 -3.60435391E-02 -1.75127192E+00 -2.68665235E-01  3.40339756E-01 -1.11514062E+00
 -3.40324218E-01  1.11513074E+00 -3.40315264E-01  1.11514474E+00  3.40348408E-01
 -1.11512605E+00 -1.59326342E-06 -1.02685724E-05  1.33212603E-02  6.48378939E-01
  9.94718864E-02  8.64992799E-06 -1.76496885E-02 -8.59430388E-01 -1.31850133E-01
 -1.70562163E-07 -3.71415164E-06  1.33355750E-02  6.48379000E-01  9.94714556E-02
  2.67317125E-06 -1.76754532E-02 -8.59430653E-01 -1.31849383E-01 -4.84773294E-01
  9.38862639E-01  4.84769493E-01 -9.38873401E-01 -4.84782901E-01  9.38879139E-01
  4.84760093E-01 -9.38857720E-01 -2.74703232E-02  1.10202117E-01 -6.69970928E-01
  1.06423899E-02  2.02434395E-02  4.19869947E-01  1.38556423E+00 -2.19881892E-02
 -4.18554625E-02  2.74703229E-02 -1.10202059E-01 -6.69970166E-01  1.06798347E-02
  2.02491947E-02 -4.19870013E-01  1.38556224E+00 -2.20838710E-02 -4.18701567E-02
 -4.95721878E-01  8.17049220E-01 -4.95697885E-01  8.17053072E-01  4.95703096E-01
 -8.17021004E-01  4.95716690E-01 -8.17081252E-01  2.90010421E-06 -2.42827831E-05
 -7.46795553E-03 -3.62978229E-01 -5.56843507E-02 -7.36248598E-05  5.23107461E-02
  2.55196959E+00  3.91507700E-01 -5.31313132E-06  5.46905720E-05  7.47299850E-03
  3.62978122E-01  5.56841760E-02 -1.59150407E-05 -5.25563402E-02 -2.55196576E+00
 -3.91500200E-01 -6.63496225E-01 -6.46874590E-01  6.63503898E-01  6.46833409E-01
  6.63489197E-01  6.46917849E-01 -6.63510966E-01 -6.46790251E-01  3.16991691E-02
 -1.22226650E+00  1.35763600E-01 -2.16464592E-03 -4.10553376E-03  1.70140935E+00
 -3.42649047E-01  5.48743538E-03  1.03695773E-02  3.16991711E-02 -1.22226651E+00
 -1.35763484E-01  2.17136923E-03  4.10657293E-03  1.70140937E+00  3.42648577E-01
 -5.51295299E-03 -1.03735090E-02  1.64202149E-01 -6.72250763E-01  1.64209688E-01
 -6.72210236E-01  1.64218972E-01 -6.72209516E-01  1.64192940E-01 -6.72251618E-01
 -3.59722120E-03 -1.41446428E+00 -6.80789980E-02  1.09280759E-03  2.05622144E-03
  3.88448252E+00  1.15374020E+00 -1.84401663E-02 -3.48571664E-02  3.59722250E-03
  1.41446429E+00 -6.80795786E-02  1.06507856E-03  2.05196491E-03 -3.88448255E+00
  1.15374502E+00 -1.82063241E-02 -3.48212722E-02 -1.19799005E-01 -3.62311681E-01
 -1.19846418E-01 -3.62369785E-01  1.19794294E-01  3.62294740E-01  1.19851112E-01
  3.62386766E-01
Total SCF Density                          R   N=         351
  2.03289250E+00  1.12906268E-01  1.25718945E-01 -4.28790723E-03  1.46648571E-02
  3.38010105E-01  6.79380385E-05 -2.32634541E-04 -1.80634346E-04  3.07101886E-01
  1.29743205E-04 -4.43018706E-04 -2.75020541E-03  1.03434136E-02  2.41634742E-01
 -3.87163895E-01  2.30844555E-01 -5.48560619E-02  8.71137520E-04  1.65545945E-03
  6.44639099E-01 -9.85885150E-03 -4.30517992E-03  1.77424872E-01  6.04801102E-04
  1.99076568E-03 -4.44075104E-02  9.82985134E-02  1.57861847E-04  6.80784736E-05
  6.06199920E-04  2.22369962E-01 -3.62302858E-03  7.03263678E-04  6.17844897E-04
  1.63054370E-01  2.97961715E-04  1.29504302E-04  1.99042416E-03 -3.62134480E-03
  2.45168731E-01  1.33862775E-03  4.35477537E-03 -1.36743017E-02  2.49512284E-01
  2.24420505E-02 -3.55247898E-02 -8.69416163E-02  1.38130171E-03  2.62531148E-03
  3.93823130E-02  5.42761108E-03 -8.66977984E-05 -1.65151871E-04  2.03289250E+00
 -3.55247898E-02  2.90340759E-02  9.21164248E-02 -1.46353834E-03 -2.78167380E-03
  2.74591736E-02  3.39595899E-02 -5.39826818E-04 -1.02477990E-03  1.12906267E-01
  1.25718947E-01  8.69415834E-02 -9.21163849E-02 -2.52677256E-01  3.51610108E-03
  1.42177443E-02 -1.91605262E-01 -1.41398841E-01  1.14384781E-03  1.09252129E-02
  4.28790070E-03 -1.46648514E-02  3.38010107E-01 -1.38300146E-03  1.46558255E-03
  3.51998291E-03  2.98088594E-02 -3.24580747E-02  3.05171982E-03  1.14691596E-03
  1.76510236E-03 -3.76066777E-02 -6.82080868E-05  2.32812812E-04 -1.80766434E-04
  3.07101902E-01 -2.62557355E-03  2.78198856E-03  1.42183395E-02 -3.24579785E-02
  2.34572927E-01  5.78565231E-03  1.09256986E-02 -3.76076353E-02  2.39687475E-01
 -1.29784463E-04  4.43045486E-04 -2.75022495E-03  1.03434160E-02  2.41634755E-01
  3.93823101E-02  2.74591767E-02  1.91605463E-01 -3.04201333E-03 -5.78415790E-03
 -8.93874892E-02  5.40969631E-02 -8.58292371E-04 -1.62988575E-03 -3.87163900E-01
  2.30844559E-01  5.48560363E-02 -8.72163159E-04 -1.65561631E-03  6.44639104E-01
 -5.42764695E-03 -3.39595720E-02 -1.41398837E-01  1.14485575E-03  1.09253836E-02
 -5.40968260E-02 -8.16578011E-02 -1.25251343E-04  9.23695652E-03  9.85891632E-03
  4.30516861E-03  1.77424908E-01  6.06141505E-04  1.99097280E-03  4.44074330E-02
  9.82985590E-02  8.48759979E-05  5.40816120E-04  1.14625610E-03  1.76509875E-03
 -3.76076911E-02  8.64991042E-04 -1.23659390E-04 -1.24630836E-02 -4.06811208E-02
 -1.54759857E-04 -6.85964845E-05  6.06324450E-04  2.22369939E-01 -3.62303472E-03
 -7.06735707E-04  6.18856462E-04  1.63054331E-01  1.64870861E-04  1.02493286E-03
  1.09255792E-02 -3.76066375E-02  2.39687475E-01  1.63091921E-03  9.23719825E-03
 -4.06810925E-02  2.45218034E-01 -2.97484941E-04 -1.29584071E-04  1.99044532E-03
 -3.62138066E-03  2.45168740E-01 -1.33915940E-03  4.35493295E-03 -1.36743282E-02
  2.49512293E-01 -6.31324840E-02  5.95323669E-02 -1.07584498E-01  1.81972188E-01
  3.10091335E-02  1.76024701E-01 -6.21235633E-02  1.32643056E-01  2.21510755E-02
  9.31871213E-03 -1.34364526E-02  3.16600079E-02 -1.56360323E-02 -3.28574331E-03
 -5.39237443E-02  3.09594963E-02 -2.43119581E-02 -4.60285721E-03  1.88254918E-01
  1.00699849E-02  1.81647066E-02 -1.00345444E-01  1.63652818E-01  2.79874141E-02
  6.15723393E-02 -5.47297973E-02  1.20838840E-01  2.01284816E-02  2.01032349E-02
 -2.01547347E-02  6.44447469E-02 -3.71815764E-02 -7.51305197E-03 -4.75731596E-02
  3.95715354E-02 -3.83799109E-02 -7.00754160E-03  1.48303911E-01  1.31281488E-01
 -6.31318464E-02  5.95318042E-02 -1.14979108E-01 -1.78436471E-01 -2.42833486E-02
  1.76025543E-01 -6.75237720E-02 -1.30585090E-01 -1.82326586E-02  9.31912203E-03
 -1.34368519E-02  3.22802138E-02  1.46189846E-02  1.35532181E-03 -5.39273223E-02
  3.19360197E-02  2.33123949E-02  2.70362610E-03 -3.30620871E-02 -5.51287247E-02
  1.88253985E-01  1.00701954E-02  1.81645225E-02 -1.06993154E-01 -1.60360375E-01
 -2.17231064E-02  6.15745020E-02 -5.96504967E-02 -1.19023667E-01 -1.66723694E-02
  2.01034836E-02 -2.01555435E-02  6.59274926E-02  3.51071237E-02  3.57495931E-03
 -4.75774007E-02  4.11197308E-02  3.70964267E-02  4.57010405E-03 -5.51295465E-02
 -5.90167972E-02  1.48304153E-01  1.31282311E-01  9.31894801E-03 -1.34365564E-02
 -3.22810593E-02 -1.46195326E-02 -1.35538377E-03 -5.39234627E-02 -3.19365956E-02
 -2.33126239E-02 -2.70364221E-03 -6.31325804E-02  5.95322746E-02  1.14984136E-01
  1.78432647E-01  2.42826107E-02  1.76026565E-01  6.75273572E-02  1.30581846E-01
  1.82320566E-02 -2.35759213E-02 -2.73990339E-02  3.04478006E-02  4.84811663E-02
  1.88253706E-01  2.01030755E-02 -2.01544954E-02 -6.59263481E-02 -3.51087288E-02
 -3.57523299E-03 -4.75725630E-02 -4.11192300E-02 -3.70973059E-02 -4.57024341E-03
  1.00683411E-02  1.81654442E-02  1.06996038E-01  1.60356640E-01  2.17224505E-02
  6.15759924E-02  5.96529383E-02  1.19020925E-01  1.66718851E-02 -2.73997013E-02
 -2.82386759E-02  4.84814593E-02  6.48076797E-02  1.48303373E-01  1.31280752E-01
  9.31888599E-03 -1.34367480E-02 -3.16591830E-02  1.56354563E-02  3.28563076E-03
 -5.39276044E-02 -3.09589285E-02  2.43117134E-02  4.60279985E-03 -6.31317555E-02
  5.95319024E-02  1.07579319E-01 -1.81975863E-01 -3.10095514E-02  1.76023685E-01
  6.21198481E-02 -1.32646183E-01 -2.21514548E-02  3.04479313E-02  4.84823586E-02
 -2.35770891E-02 -2.74005871E-02 -3.30620873E-02 -5.51294305E-02  1.88255207E-01
  2.01036438E-02 -2.01557830E-02 -6.44459544E-02  3.71800079E-02  7.51283901E-03
 -4.75779928E-02 -3.95720681E-02  3.83790512E-02  7.00741557E-03  1.00718456E-02
  1.81637825E-02  1.00342405E-01 -1.63656448E-01 -2.79878893E-02  6.15708333E-02
  5.47272431E-02 -1.20841485E-01 -2.01288237E-02  4.84820636E-02  6.48092569E-02
 -2.73999170E-02 -2.82388330E-02 -5.51288372E-02 -5.90167910E-02  1.48304679E-01
  1.31283023E-01
Mulliken Charges                           R   N=           6
 -3.73331634E-01 -3.73331722E-01  1.86665356E-01  1.86666308E-01  1.86666143E-01
  1.86665549E-01
ONIOM Charges                              I   N=          16
           0           0           0           0           0           0
           0           0           0           0           0           0
           0           0           0           0
ONIOM Multiplicities                       I   N=          16
           1           0           0           0           0           0
           0           0           0           0           0           0
           0           0           0           0
Atom Layers                                I   N=           6
           1           1           1           1           1           1
Atom Modifiers                             I   N=           6
           0           0           0           0           0           0
Force Field                                I                0
Int Atom Modified Types                    I   N=           6
           0           0           0           0           0           0
Link Atoms                                 I   N=           6
           0           0           0           0           0           0
Atom Modified MM Charges                   R   N=           6
  0.00000000E+00  0.00000000E+00  0.00000000E+00  0.00000000E+00  0.00000000E+00
  0.00000000E+00
Link Distances                             R   N=          24
  0.00000000E+00  0.00000000E+00  0.00000000E+00  0.00000000E+00  0.00000000E+00
  0.00000000E+00  0.00000000E+00  0.00000000E+00  0.00000000E+00  0.00000000E+00