 Entering Gaussian System, Link 0=/Johnny/gnovikov/gauss/g09/g09
 Initial command:
 /Johnny/gnovikov/gauss/g09/l1.exe "/Johnny/gnovikov/gauss/scr/Gau-14786.inp" -scrdir="/Johnny/gnovikov/gauss/scr/"
 Entering Link 1 = /Johnny/gnovikov/gauss/g09/l1.exe PID=     14788.
  
 Copyright (c) 1988,1990,1992,1993,1995,1998,2003,2009,2013,
            Gaussian, Inc.  All Rights Reserved.
  
 This is part of the Gaussian(R) 09 program.  It is based on
 the Gaussian(R) 03 system (copyright 2003, Gaussian, Inc.),
 the Gaussian(R) 98 system (copyright 1998, Gaussian, Inc.),
 the Gaussian(R) 94 system (copyright 1995, Gaussian, Inc.),
 the Gaussian 92(TM) system (copyright 1992, Gaussian, Inc.),
 the Gaussian 90(TM) system (copyright 1990, Gaussian, Inc.),
 the Gaussian 88(TM) system (copyright 1988, Gaussian, Inc.),
 the Gaussian 86(TM) system (copyright 1986, Carnegie Mellon
 University), and the Gaussian 82(TM) system (copyright 1983,
 Carnegie Mellon University). Gaussian is a federally registered
 trademark of Gaussian, Inc.
  
 This software contains proprietary and confidential information,
 including trade secrets, belonging to Gaussian, Inc.
  
 This software is provided under written license and may be
 used, copied, transmitted, or stored only in accord with that
 written license.
  
 The following legend is applicable only to US Government
 contracts under FAR:
  
                    RESTRICTED RIGHTS LEGEND
  
 Use, reproduction and disclosure by the US Government is
 subject to restrictions as set forth in subparagraphs (a)
 and (c) of the Commercial Computer Software - Restricted
 Rights clause in FAR 52.227-19.
  
 Gaussian, Inc.
 340 Quinnipiac St., Bldg. 40, Wallingford CT 06492
  
  
 ---------------------------------------------------------------
 Warning -- This program may not be used in any manner that
 competes with the business of Gaussian, Inc. or will provide
 assistance to any competitor of Gaussian, Inc.  The licensee
 of this program is prohibited from giving any competitor of
 Gaussian, Inc. access to this program.  By using this program,
 the user acknowledges that Gaussian, Inc. is engaged in the
 business of creating and licensing software in the field of
 computational chemistry and represents and warrants to the
 licensee that it is not a competitor of Gaussian, Inc. and that
 it will not use this program in any manner prohibited above.
 ---------------------------------------------------------------
  

 Cite this work as:
 Gaussian 09, Revision D.01,
 M. J. Frisch, G. W. Trucks, H. B. Schlegel, G. E. Scuseria, 
 M. A. Robb, J. R. Cheeseman, G. Scalmani, V. Barone, B. Mennucci, 
 G. A. Petersson, H. Nakatsuji, M. Caricato, X. Li, H. P. Hratchian, 
 A. F. Izmaylov, J. Bloino, G. Zheng, J. L. Sonnenberg, M. Hada, 
 M. Ehara, K. Toyota, R. Fukuda, J. Hasegawa, M. Ishida, T. Nakajima, 
 Y. Honda, O. Kitao, H. Nakai, T. Vreven, J. A. Montgomery, Jr., 
 J. E. Peralta, F. Ogliaro, M. Bearpark, J. J. Heyd, E. Brothers, 
 K. N. Kudin, V. N. Staroverov, T. Keith, R. Kobayashi, J. Normand, 
 K. Raghavachari, A. Rendell, J. C. Burant, S. S. Iyengar, J. Tomasi, 
 M. Cossi, N. Rega, J. M. Millam, M. Klene, J. E. Knox, J. B. Cross, 
 V. Bakken, C. Adamo, J. Jaramillo, R. Gomperts, R. E. Stratmann, 
 O. Yazyev, A. J. Austin, R. Cammi, C. Pomelli, J. W. Ochterski, 
 R. L. Martin, K. Morokuma, V. G. Zakrzewski, G. A. Voth, 
 P. Salvador, J. J. Dannenberg, S. Dapprich, A. D. Daniels, 
 O. Farkas, J. B. Foresman, J. V. Ortiz, J. Cioslowski, 
 and D. J. Fox, Gaussian, Inc., Wallingford CT, 2013.
 
 ******************************************
 Gaussian 09:  AM64L-G09RevD.01 24-Apr-2013
                13-Oct-2017 
 ******************************************
 %RWF=./tmp/4612904602660006654/rwf
 %Int=./tmp/4612904602660006654/int
 %D2E=./tmp/4612904602660006654/d2e
 %Scr=./tmp/4612904602660006654/skr
 %NoSave
 %chk=./tmp/4612904602660006654/chk
 %nproc=3
 Will use up to    3 processors via shared memory.
 %mem=1000mb
 ------------------------
 # B3lyp/3-21g nosym freq
 ------------------------
 1/10=4,30=1,38=1/1,3;
 2/12=2,15=1,17=6,18=5,40=1/2;
 3/5=5,11=2,16=1,25=1,30=1,71=2,74=-5,140=1/1,2,3;
 4//1;
 5/5=2,38=5,98=1/2;
 8/6=4,10=90,11=11/1;
 11/6=1,8=1,9=11,15=111,16=1,31=1/1,2,10;
 10/6=1,31=1/2;
 6/7=2,8=2,9=2,10=2,18=1,28=1/1;
 7/8=1,10=1,25=1,30=1/1,2,3,16;
 1/10=4,30=1/3;
 99//99;


 Symbolic Z-matrix:
 Charge =  0 Multiplicity = 1
 6                    -0.66432   0.01057   0.02007 
 6                     0.66432  -0.01055  -0.02006 
 1                    -1.21916   0.93063   0.17716 
 1                    -1.25655  -0.89129  -0.10235 
 1                     1.25659   0.89128   0.10235 
 1                     1.21913  -0.93064  -0.17716 
 

 GradGradGradGradGradGradGradGradGradGradGradGradGradGradGradGradGradGrad
 Berny optimization.
 Initialization pass.
 Trust Radius=3.00D-01 FncErr=1.00D-07 GrdErr=1.00D-07
 Number of steps in this run=      2 maximum allowed number of steps=      2.
 GradGradGradGradGradGradGradGradGradGradGradGradGradGradGradGradGradGrad

                          Input orientation:                          
 ---------------------------------------------------------------------
 Center     Atomic      Atomic             Coordinates (Angstroms)
 Number     Number       Type             X           Y           Z
 ---------------------------------------------------------------------
      1          6           0       -0.664324    0.010565    0.020066
      2          6           0        0.664324   -0.010551   -0.020065
      3          1           0       -1.219164    0.930635    0.177157
      4          1           0       -1.256551   -0.891290   -0.102352
      5          1           0        1.256586    0.891283    0.102349
      6          1           0        1.219129   -0.930641   -0.177158
 ---------------------------------------------------------------------
                    Distance matrix (angstroms):
                    1          2          3          4          5
     1  C    0.000000
     2  C    1.329421   0.000000
     3  H    1.085842   2.114771   0.000000
     4  H    1.085847   2.114766   1.843620   0.000000
     5  H    2.114788   1.085847   2.477193   3.087933   0.000000
     6  H    2.114749   1.085842   3.087906   2.477123   1.843620
                    6
     6  H    0.000000
 Symmetry turned off by external request.
 Stoichiometry    C2H4
 Framework group  C1[X(C2H4)]
 Deg. of freedom    12
 Full point group                 C1      NOp   1
 Rotational constants (GHZ):    147.5330706     30.1027055     25.0014084
 Standard basis: 3-21G (6D, 7F)
    26 basis functions,    42 primitive gaussians,    26 cartesian basis functions
     8 alpha electrons        8 beta electrons
       nuclear repulsion energy        33.3755842058 Hartrees.
 NAtoms=    6 NActive=    6 NUniq=    6 SFac= 1.00D+00 NAtFMM=   60 NAOKFM=F Big=F
 Integral buffers will be    131072 words long.
 Raffenetti 2 integral format.
 Two-electron integral symmetry is turned off.
 One-electron integrals computed using PRISM.
 NBasis=    26 RedAO= T EigKep=  1.60D-02  NBF=    26
 NBsUse=    26 1.00D-06 EigRej= -1.00D+00 NBFU=    26
 ExpMin= 1.83D-01 ExpMax= 1.72D+02 ExpMxC= 1.72D+02 IAcc=1 IRadAn=         1 AccDes= 0.00D+00
 Harris functional with IExCor=  402 and IRadAn=       1 diagonalized for initial guess.
 HarFok:  IExCor=  402 AccDes= 0.00D+00 IRadAn=         1 IDoV= 1 UseB2=F ITyADJ=14
 ICtDFT=  3500011 ScaDFX=  1.000000  1.000000  1.000000  1.000000
 FoFCou: FMM=F IPFlag=           0 FMFlag=      100000 FMFlg1=           0
         NFxFlg=           0 DoJE=T BraDBF=F KetDBF=T FulRan=T
         wScrn=  0.000000 ICntrl=     500 IOpCl=  0 I1Cent=   200000004 NGrid=           0
         NMat0=    1 NMatS0=      1 NMatT0=    0 NMatD0=    1 NMtDS0=    0 NMtDT0=    0
 Symmetry not used in FoFCou.
 Keep R1 ints in memory in canonical form, NReq=942464.
 Requested convergence on RMS density matrix=1.00D-08 within 128 cycles.
 Requested convergence on MAX density matrix=1.00D-06.
 Requested convergence on             energy=1.00D-06.
 No special actions if energy rises.
 Integral accuracy reduced to 1.0D-05 until final iterations.
 Initial convergence to 1.0D-05 achieved.  Increase integral accuracy.
 SCF Done:  E(RB3LYP) =  -78.1610474742     A.U. after   10 cycles
            NFock= 10  Conv=0.46D-08     -V/T= 2.0099
 DoSCS=F DFT=T ScalE2(SS,OS)=  1.000000  1.000000
 Range of M.O.s used for correlation:     1    26
 NBasis=    26 NAE=     8 NBE=     8 NFC=     0 NFV=     0
 NROrb=     26 NOA=     8 NOB=     8 NVA=    18 NVB=    18
 Symmetrizing basis deriv contribution to polar:
 IMax=3 JMax=2 DiffMx= 0.00D+00
 G2DrvN: will do     7 centers at a time, making    1 passes.
 Calling FoFCou, ICntrl=  3107 FMM=F I1Cent=   0 AccDes= 0.00D+00.
 End of G2Drv F.D. properties file   721 does not exist.
 End of G2Drv F.D. properties file   722 does not exist.
 End of G2Drv F.D. properties file   788 does not exist.
          IDoAtm=111111
          Differentiating once with respect to electric field.
                with respect to dipole field.
          Differentiating once with respect to nuclear coordinates.
 Keep R1 ints in memory in canonical form, NReq=921684.
          There are    21 degrees of freedom in the 1st order CPHF.  IDoFFX=6 NUNeed=     3.
     18 vectors produced by pass  0 Test12= 6.86D-16 4.76D-09 XBig12= 2.98D+01 4.69D+00.
 AX will form    18 AO Fock derivatives at one time.
     18 vectors produced by pass  1 Test12= 6.86D-16 4.76D-09 XBig12= 2.64D+00 6.90D-01.
     18 vectors produced by pass  2 Test12= 6.86D-16 4.76D-09 XBig12= 2.21D-02 8.21D-02.
     18 vectors produced by pass  3 Test12= 6.86D-16 4.76D-09 XBig12= 2.76D-05 2.30D-03.
     17 vectors produced by pass  4 Test12= 6.86D-16 4.76D-09 XBig12= 1.14D-08 5.24D-05.
      3 vectors produced by pass  5 Test12= 6.86D-16 4.76D-09 XBig12= 7.37D-12 1.20D-06.
      1 vectors produced by pass  6 Test12= 6.86D-16 4.76D-09 XBig12= 3.49D-15 2.09D-08.
 InvSVY:  IOpt=1 It=  1 EMax= 5.16D-16
 Solved reduced A of dimension    93 with    21 vectors.
 Isotropic polarizability for W=    0.000000       18.24 Bohr**3.
 End of Minotr F.D. properties file   721 does not exist.
 End of Minotr F.D. properties file   722 does not exist.
 End of Minotr F.D. properties file   788 does not exist.

 **********************************************************************

            Population analysis using the SCF density.

 **********************************************************************

 Alpha  occ. eigenvalues --  -10.11959 -10.11859  -0.75990  -0.57698  -0.46969
 Alpha  occ. eigenvalues --   -0.42342  -0.35251  -0.27064
 Alpha virt. eigenvalues --    0.02226   0.14485   0.15487   0.17958   0.27586
 Alpha virt. eigenvalues --    0.36862   0.66703   0.71152   0.73087   0.80091
 Alpha virt. eigenvalues --    0.83308   0.87320   1.01147   1.05916   1.09034
 Alpha virt. eigenvalues --    1.37677   1.39941   1.70485
          Condensed to atoms (all electrons):
               1          2          3          4          5          6
     1  C    5.138300   0.564921   0.381523   0.381524  -0.046466  -0.046471
     2  C    0.564921   5.138300  -0.046468  -0.046469   0.381523   0.381524
     3  H    0.381523  -0.046468   0.511115  -0.030977  -0.005092   0.003234
     4  H    0.381524  -0.046469  -0.030977   0.511115   0.003233  -0.005092
     5  H   -0.046466   0.381523  -0.005092   0.003233   0.511112  -0.030977
     6  H   -0.046471   0.381524   0.003234  -0.005092  -0.030977   0.511118
 Mulliken charges:
               1
     1  C   -0.373332
     2  C   -0.373332
     3  H    0.186665
     4  H    0.186666
     5  H    0.186666
     6  H    0.186666
 Sum of Mulliken charges =   0.00000
 Mulliken charges with hydrogens summed into heavy atoms:
               1
     1  C    0.000000
     2  C    0.000000
 APT charges:
               1
     1  C   -0.070804
     2  C   -0.070804
     3  H    0.035405
     4  H    0.035399
     5  H    0.035403
     6  H    0.035401
 Sum of APT charges =   0.00000
 APT charges with hydrogens summed into heavy atoms:
               1
     1  C    0.000000
     2  C    0.000000
 Electronic spatial extent (au):  <R**2>=             82.2822
 Charge=              0.0000 electrons
 Dipole moment (field-independent basis, Debye):
    X=              0.0000    Y=              0.0000    Z=              0.0000  Tot=              0.0000
 Quadrupole moment (field-independent basis, Debye-Ang):
   XX=            -11.9760   YY=            -12.2256   ZZ=            -15.2041
   XY=              0.0102   XZ=             -0.0902   YZ=              0.4699
 Traceless Quadrupole moment (field-independent basis, Debye-Ang):
   XX=              1.1592   YY=              0.9097   ZZ=             -2.0689
   XY=              0.0102   XZ=             -0.0902   YZ=              0.4699
 Octapole moment (field-independent basis, Debye-Ang**2):
  XXX=              0.0000  YYY=             -0.0002  ZZZ=              0.0000  XYY=              0.0000
  XXY=              0.0001  XXZ=              0.0000  XZZ=              0.0000  YZZ=             -0.0001
  YYZ=              0.0000  XYZ=              0.0000
 Hexadecapole moment (field-independent basis, Debye-Ang**3):
 XXXX=            -65.0647 YYYY=            -25.0095 ZZZZ=            -15.9455 XXXY=              0.4610
 XXXZ=              0.6669 YYYX=              0.1891 YYYZ=             -0.4653 ZZZX=              0.8171
 ZZZY=             -0.9842 XXYY=            -12.5953 XXZZ=            -14.4913 YYZZ=             -7.3138
 XXYZ=              0.2914 YYXZ=              0.1428 ZZXY=              0.0667
 N-N= 3.337558420583D+01 E-N=-2.471437236409D+02  KE= 7.739153473491D+01
  Exact polarizability:  29.343  -0.109  18.827  -0.659   1.944   6.537
 Approx polarizability:  45.472  -0.283  23.026  -1.109   2.463   7.494
 Calling FoFJK, ICntrl=    100127 FMM=F ISym2X=0 I1Cent= 0 IOpClX= 0 NMat=1 NMatS=1 NMatT=0.
 Full mass-weighted force constant matrix:
 Low frequencies ---  -31.3807   -9.5815    0.0002    0.0008    0.0008    9.7032
 Low frequencies ---  874.8361  989.4611  997.7699
 Diagonal vibrational polarizability:
        0.1298320       0.2137265       2.9841708
 Harmonic frequencies (cm**-1), IR intensities (KM/Mole), Raman scattering
 activities (A**4/AMU), depolarization ratios for plane and unpolarized
 incident light, reduced masses (AMU), force constants (mDyne/A),
 and normal coordinates:
                      1                      2                      3
                      A                      A                      A
 Frequencies --    874.8361               989.4611               997.7697
 Red. masses --      1.0440                 1.1607                 1.5211
 Frc consts  --      0.4707                 0.6695                 0.8922
 IR Inten    --      2.1474               111.0881                 0.0000
  Atom  AN      X      Y      Z        X      Y      Z        X      Y      Z
     1   6     0.00  -0.04  -0.01     0.00  -0.01   0.08     0.00  -0.02   0.15
     2   6     0.00  -0.04  -0.01     0.00  -0.01   0.08     0.00   0.02  -0.15
     3   1     0.44   0.23   0.02    -0.01   0.08  -0.49    -0.01   0.07  -0.48
     4   1    -0.43   0.25   0.05    -0.01   0.08  -0.49    -0.01   0.07  -0.48
     5   1    -0.43   0.25   0.05    -0.01   0.08  -0.49     0.01  -0.07   0.48
     6   1     0.44   0.23   0.02    -0.01   0.08  -0.49     0.01  -0.07   0.48
                      4                      5                      6
                      A                      A                      A
 Frequencies --   1079.8053              1285.7074              1428.0276
 Red. masses --      1.0078                 1.5319                 1.2747
 Frc consts  --      0.6924                 1.4920                 1.5316
 IR Inten    --      0.0013                 0.0000                 0.0000
  Atom  AN      X      Y      Z        X      Y      Z        X      Y      Z
     1   6     0.00   0.00   0.00     0.00   0.15   0.02     0.11   0.00   0.00
     2   6     0.00   0.00   0.00     0.00  -0.15  -0.02    -0.11   0.00   0.00
     3   1     0.01  -0.08   0.50    -0.47  -0.14  -0.01     0.46   0.18   0.01
     4   1    -0.01   0.08  -0.49     0.46  -0.15  -0.04     0.45  -0.19  -0.04
     5   1    -0.01   0.08  -0.49    -0.46   0.15   0.04    -0.45   0.19   0.04
     6   1     0.01  -0.08   0.50     0.47   0.14   0.01    -0.46  -0.18  -0.01
                      7                      8                      9
                      A                      A                      A
 Frequencies --   1535.3801              1710.3441              3146.6398
 Red. masses --      1.1113                 2.8414                 1.0483
 Frc consts  --      1.5435                 4.8972                 6.1156
 IR Inten    --      7.9447                 0.0000                13.5875
  Atom  AN      X      Y      Z        X      Y      Z        X      Y      Z
     1   6     0.07   0.00   0.00     0.29   0.00  -0.01    -0.04   0.00   0.00
     2   6     0.07   0.00   0.00    -0.29   0.00   0.01    -0.04   0.00   0.00
     3   1    -0.41  -0.27  -0.03    -0.27  -0.37  -0.05     0.25  -0.43  -0.07
     4   1    -0.40   0.29   0.06    -0.25   0.37   0.06     0.26   0.42   0.06
     5   1    -0.40   0.29   0.06     0.25  -0.37  -0.06     0.26   0.42   0.06
     6   1    -0.41  -0.27  -0.03     0.27   0.37   0.05     0.25  -0.43  -0.07
                     10                     11                     12
                      A                      A                      A
 Frequencies --   3161.9436              3211.8765              3243.8202
 Red. masses --      1.0737                 1.1116                 1.1162
 Frc consts  --      6.3246                 6.7565                 6.9202
 IR Inten    --      0.0000                 0.0000                27.7723
  Atom  AN      X      Y      Z        X      Y      Z        X      Y      Z
     1   6     0.05   0.00   0.00     0.00  -0.07  -0.01     0.00   0.07   0.01
     2   6    -0.05   0.00   0.00     0.00   0.07   0.01     0.00   0.07   0.01
     3   1    -0.25   0.43   0.07    -0.26   0.42   0.07     0.26  -0.42  -0.07
     4   1    -0.26  -0.42  -0.06     0.28   0.41   0.06    -0.28  -0.41  -0.06
     5   1     0.26   0.42   0.06    -0.28  -0.41  -0.06    -0.28  -0.41  -0.06
     6   1     0.25  -0.43  -0.07     0.26  -0.42  -0.07     0.26  -0.42  -0.07

 -------------------
 - Thermochemistry -
 -------------------
 Temperature   298.150 Kelvin.  Pressure   1.00000 Atm.
 Atom     1 has atomic number  6 and mass  12.00000
 Atom     2 has atomic number  6 and mass  12.00000
 Atom     3 has atomic number  1 and mass   1.00783
 Atom     4 has atomic number  1 and mass   1.00783
 Atom     5 has atomic number  1 and mass   1.00783
 Atom     6 has atomic number  1 and mass   1.00783
 Molecular mass:    28.03130 amu.
 Principal axes and moments of inertia in atomic units:
                           1         2         3
     Eigenvalues --    12.23279  59.95279  72.18558
           X            0.99942   0.02028   0.02743
           Y           -0.01588   0.98823  -0.15213
           Z           -0.03019   0.15161   0.98798
 This molecule is an asymmetric top.
 Rotational symmetry number  1.
 Rotational temperatures (Kelvin)      7.08046     1.44470     1.19988
 Rotational constants (GHZ):         147.53307    30.10271    25.00141
 Zero-point vibrational energy     135570.5 (Joules/Mol)
                                   32.40212 (Kcal/Mol)
 Vibrational temperatures:   1258.69  1423.61  1435.57  1553.60  1849.84
          (Kelvin)           2054.61  2209.07  2460.80  4527.31  4549.33
                             4621.17  4667.13
 
 Zero-point correction=                           0.051636 (Hartree/Particle)
 Thermal correction to Energy=                    0.054655
 Thermal correction to Enthalpy=                  0.055599
 Thermal correction to Gibbs Free Energy=         0.029462
 Sum of electronic and zero-point Energies=            -78.109411
 Sum of electronic and thermal Energies=               -78.106392
 Sum of electronic and thermal Enthalpies=             -78.105448
 Sum of electronic and thermal Free Energies=          -78.131586
 
                     E (Thermal)             CV                S
                      KCal/Mol        Cal/Mol-Kelvin    Cal/Mol-Kelvin
 Total                   34.297              7.916             55.011
 Electronic               0.000              0.000              0.000
 Translational            0.889              2.981             35.927
 Rotational               0.889              2.981             18.610
 Vibrational             32.519              1.955              0.474
                       Q            Log10(Q)             Ln(Q)
 Total Bot       0.280853D-13        -13.551520        -31.203528
 Total V=0       0.158259D+11         10.199369         23.484915
 Vib (Bot)       0.184851D-23        -23.733179        -54.647665
 Vib (V=0)       0.104162D+01          0.017710          0.040778
 Electronic      0.100000D+01          0.000000          0.000000
 Translational   0.583338D+07          6.765920         15.579107
 Rotational      0.260459D+04          3.415739          7.865030
 -------------------------------------------------------------------
 Center     Atomic                   Forces (Hartrees/Bohr)
 Number     Number              X              Y              Z
 -------------------------------------------------------------------
      1        6           0.000000015    0.000000168    0.000001051
      2        6          -0.000000063   -0.000001084   -0.000001192
      3        1           0.000002315    0.000001428    0.000001571
      4        1          -0.000002127    0.000001363    0.000002680
      5        1          -0.000000130   -0.000000855   -0.000002534
      6        1          -0.000000011   -0.000001019   -0.000001576
 -------------------------------------------------------------------
 Cartesian Forces:  Max     0.000002680 RMS     0.000001450

 GradGradGradGradGradGradGradGradGradGradGradGradGradGradGradGradGradGrad
 Berny optimization.
 Search for a local minimum.
 Step number   1 out of a maximum of    2
 All quantities printed in internal units (Hartrees-Bohrs-Radians)
 Second derivative matrix not updated -- analytic derivatives used.
 The second derivative matrix:
                          X1        Y1        Z1        X2        Y2
           X1           0.87432
           Y1          -0.00159   0.62683
           Z1          -0.02129   0.07882   0.12801
           X2          -0.57596   0.00701   0.01564   0.87432
           Y2           0.00701  -0.11767  -0.01041  -0.00158   0.62683
           Z2           0.01564  -0.01041  -0.05338  -0.02129   0.07882
           X3          -0.12784   0.11406   0.02004  -0.01582   0.03288
           Y3           0.12003  -0.26205  -0.03780  -0.00308   0.00319
           Z3           0.02098  -0.03764  -0.04473   0.00013  -0.00139
           X4          -0.13766  -0.12008  -0.01575  -0.01703  -0.03227
           Y4          -0.12606  -0.25442  -0.02977   0.00369   0.00412
           Z4          -0.01668  -0.02994  -0.04246   0.00122   0.00056
           X5          -0.01703  -0.03227  -0.00433  -0.13767  -0.12008
           Y5           0.00369   0.00412  -0.00045  -0.12606  -0.25441
           Z5           0.00122   0.00056   0.00642  -0.01668  -0.02994
           X6          -0.01582   0.03288   0.00569  -0.12783   0.11405
           Y6          -0.00308   0.00319  -0.00040   0.12002  -0.26206
           Z6           0.00013  -0.00139   0.00614   0.02098  -0.03764
                          Z2        X3        Y3        Z3        X4
           Z2           0.12801
           X3           0.00569   0.13703
           Y3          -0.00040  -0.13058   0.27362
           Z3           0.00614  -0.02322   0.04191   0.03222
           X4          -0.00433   0.00976   0.01416   0.00199   0.14798
           Y4          -0.00045  -0.01522  -0.01762  -0.00273   0.13688
           Z4           0.00642  -0.00253  -0.00355   0.00240   0.01769
           X5          -0.01575   0.00134   0.00035  -0.00024  -0.00439
           Y5          -0.02976  -0.00026   0.00118   0.00159   0.00096
           Z5          -0.04246  -0.00033   0.00158  -0.00887   0.00063
           X6           0.02004  -0.00447  -0.00087   0.00035   0.00134
           Y6          -0.03780  -0.00087   0.00168  -0.00174   0.00035
           Z6          -0.04473   0.00035  -0.00174   0.01285  -0.00024
                          Y4        Z4        X5        Y5        Z5
           Y4           0.26511
           Z4           0.03315   0.02968
           X5           0.00096   0.00063   0.14799
           Y5           0.00162  -0.00180   0.13689   0.26510
           Z5          -0.00180   0.01283   0.01769   0.03315   0.02968
           X6          -0.00026  -0.00033   0.00976  -0.01522  -0.00253
           Y6           0.00118   0.00158   0.01416  -0.01762  -0.00355
           Z6           0.00159  -0.00887   0.00199  -0.00273   0.00240
                          X6        Y6        Z6
           X6           0.13702
           Y6          -0.13058   0.27363
           Z6          -0.02322   0.04191   0.03222
 ITU=  0
     Eigenvalues ---    0.03371   0.04447   0.07912   0.08371   0.13685
     Eigenvalues ---    0.14999   0.16354   0.31304   0.52569   0.73641
     Eigenvalues ---    0.90599   1.50354
 Angle between quadratic step and forces=  64.79 degrees.
 Linear search not attempted -- first point.
 TrRot=  0.000000 -0.000004 -0.000001  0.000000 -0.000001  0.000000
 Variable       Old X    -DE/DX   Delta X   Delta X   Delta X     New X
                                 (Linear)    (Quad)   (Total)
    X1       -1.25539   0.00000   0.00000   0.00000   0.00000  -1.25539
    Y1        0.01997   0.00000   0.00000  -0.00001  -0.00001   0.01995
    Z1        0.03792   0.00000   0.00000  -0.00001  -0.00001   0.03791
    X2        1.25539   0.00000   0.00000   0.00000   0.00000   1.25539
    Y2       -0.01994   0.00000   0.00000  -0.00001  -0.00001  -0.01995
    Z2       -0.03792   0.00000   0.00000   0.00000   0.00000  -0.03791
    X3       -2.30389   0.00000   0.00000   0.00004   0.00003  -2.30385
    Y3        1.75864   0.00000   0.00000   0.00001   0.00001   1.75865
    Z3        0.33478   0.00000   0.00000   0.00000   0.00000   0.33478
    X4       -2.37454   0.00000   0.00000  -0.00003  -0.00003  -2.37457
    Y4       -1.68429   0.00000   0.00000   0.00001   0.00001  -1.68429
    Z4       -0.19342   0.00000   0.00000   0.00001   0.00000  -0.19341
    X5        2.37460   0.00000   0.00000  -0.00003  -0.00003   2.37457
    Y5        1.68428   0.00000   0.00000   0.00001   0.00001   1.68429
    Z5        0.19341   0.00000   0.00000   0.00000   0.00000   0.19341
    X6        2.30382   0.00000   0.00000   0.00003   0.00003   2.30385
    Y6       -1.75866   0.00000   0.00000   0.00001   0.00001  -1.75865
    Z6       -0.33478   0.00000   0.00000   0.00000   0.00000  -0.33478
         Item               Value     Threshold  Converged?
 Maximum Force            0.000003     0.000450     YES
 RMS     Force            0.000001     0.000300     YES
 Maximum Displacement     0.000035     0.001800     YES
 RMS     Displacement     0.000017     0.001200     YES
 Predicted change in Energy=-7.570363D-11
 Optimization completed.
    -- Stationary point found.
 GradGradGradGradGradGradGradGradGradGradGradGradGradGradGradGradGradGrad

 1\1\GINC-ANT01\Freq\RB3LYP\3-21G\C2H4\GNOVIKOV\13-Oct-2017\0\\# B3lyp/
 3-21g nosym freq\\\0,1\C,-0.6643235777,0.0105652921,0.0200664119\C,0.6
 643238532,-0.0105512546,-0.0200647895\H,-1.2191644584,0.9306346402,0.1
 771570461\H,-1.2565512262,-0.8912902829,-0.1023521195\H,1.2565860129,0
 .8912826644,0.1023493559\H,1.2191292921,-0.9306411461,-0.1771575552\\V
 ersion=AM64L-G09RevD.01\HF=-78.1610475\RMSD=4.609e-09\RMSF=1.450e-06\Z
 eroPoint=0.0516361\Thermal=0.0546553\Dipole=-0.0000001,-0.0000038,-0.0
 000006\DipoleDeriv=-0.0112892,0.0037422,-0.0078185,0.0037276,0.1023877
 ,0.0639404,-0.0078371,0.0639441,-0.3035095,-0.0112889,0.0037492,-0.007
 8174,0.0037427,0.1023872,0.0639399,-0.0078348,0.0639438,-0.3035097,0.0
 084472,0.0609746,0.0135108,0.071552,-0.0533559,-0.0343415,0.0151393,-0
 .0340535,0.1511227,0.0028419,-0.064716,-0.0056922,-0.0752867,-0.049031
 6,-0.0295987,-0.0073034,-0.0298906,0.1523868,0.002843,-0.0647201,-0.00
 56928,-0.075287,-0.0490235,-0.0295978,-0.0073033,-0.0298896,0.1523895,
 0.008446,0.0609701,0.0135101,0.0715514,-0.0533639,-0.0343423,0.0151392
 ,-0.0340542,0.1511201\Polar=29.342993,-0.1086443,18.8266434,-0.6586759
 ,1.9443075,6.5374248\PG=C01 [X(C2H4)]\NImag=0\\0.87431644,-0.00159149,
 0.62683147,-0.02129434,0.07881971,0.12800762,-0.57596384,0.00700578,0.
 01564002,0.87431694,0.00700797,-0.11767240,-0.01040637,-0.00158101,0.6
 2683123,0.01564038,-0.01040630,-0.05337551,-0.02129277,0.07881937,0.12
 800755,-0.12784115,0.11405621,0.02004226,-0.01582159,0.03287660,0.0056
 8839,0.13703233,0.12002651,-0.26205341,-0.03779770,-0.00308097,0.00319
 085,-0.00040325,-0.13058137,0.27362017,0.02097901,-0.03764065,-0.04473
 423,0.00013480,-0.00139332,0.00614107,-0.02321862,0.04191168,0.0322212
 9,-0.13766195,-0.12007714,-0.01574799,-0.01702798,-0.03227240,-0.00432
 872,0.00976023,0.01415723,0.00198945,0.14798490,-0.12605585,-0.2544151
 8,-0.02976538,0.00369321,0.00411873,-0.00044699,-0.01521765,-0.0176160
 4,-0.00273231,0.13688255,0.26511229,-0.01668223,-0.02993929,-0.0424610
 9,0.00122230,0.00055993,0.00642215,-0.00253407,-0.00354886,0.00239943,
 0.01769259,0.03314962,0.02968232,-0.01702604,-0.03227119,-0.00432859,-
 0.13767196,-0.12008195,-0.01574843,0.00133802,0.00035109,-0.00023873,-
 0.00439313,0.00095885,0.00063343,0.14799292,0.00369351,0.00411967,-0.0
 0044683,-0.12605937,-0.25440606,-0.02976381,-0.00026135,0.00117627,0.0
 0159171,0.00095890,0.00162367,-0.00179674,0.13688701,0.26510246,0.0012
 2228,0.00056006,0.00642202,-0.01668246,-0.02993768,-0.04246113,-0.0003
 3206,0.00157523,-0.00887369,0.00063344,-0.00179674,0.01283121,0.017693
 03,0.03314795,0.02968216,-0.01582347,0.03287783,0.00568864,-0.12783157
 ,0.11405078,0.02004116,-0.00446785,-0.00087248,0.00035409,0.00133792,-
 0.00026110,-0.00033202,0.00976019,-0.01521870,-0.00253423,0.13702476,-
 0.00308065,0.00318985,-0.00040344,0.12002237,-0.26206234,-0.03779901,-
 0.00087243,0.00168217,-0.00173711,0.00035086,0.00117654,0.00157533,0.0
 1415618,-0.01761601,-0.00354882,-0.13057633,0.27362979,0.00013491,-0.0
 0139353,0.00614119,0.02097811,-0.03764193,-0.04473413,0.00035410,-0.00
 173711,0.01284613,-0.00023877,0.00159180,-0.00887401,0.00198929,-0.002
 73228,0.00239944,-0.02321763,0.04191304,0.03222139\\-0.00000002,-0.000
 00017,-0.00000105,0.00000006,0.00000108,0.00000119,-0.00000231,-0.0000
 0143,-0.00000157,0.00000213,-0.00000136,-0.00000268,0.00000013,0.00000
 086,0.00000253,0.00000001,0.00000102,0.00000158\\\@


 GETTING A SIMPLE ANSWER FROM A PROFESSOR IS LIKE
 GETTING A THIMBLE OF WATER FROM A FIRE HYDRANT.
     -- PROF. LEN SHAPIRO, NDSU
 Job cpu time:       0 days  0 hours  0 minutes 19.8 seconds.
 File lengths (MBytes):  RWF=     18 Int=      0 D2E=      0 Chk=      1 Scr=      5
 Normal termination of Gaussian 09 at Fri Oct 13 15:18:24 2017.
