                                                                        
Force     RB3LYP                                                      3-21G               
Number of atoms                            I               12
Info1-9                                    I   N=           9
          25          25           0           0           0         100
           5          18        -502
Charge                                     I                0
Multiplicity                               I                1
Number of electrons                        I               44
Number of alpha electrons                  I               22
Number of beta electrons                   I               22
Number of basis functions                  I               66
Number of independent functions            I               66
Number of point charges in /Mol/           I                0
Number of translation vectors              I                0
Atomic numbers                             I   N=          12
           6           7           7           6           6           1
           1           6           1           1           1           1
Nuclear charges                            R   N=          12
  6.00000000E+00  7.00000000E+00  7.00000000E+00  6.00000000E+00  6.00000000E+00
  1.00000000E+00  1.00000000E+00  6.00000000E+00  1.00000000E+00  1.00000000E+00
  1.00000000E+00  1.00000000E+00
Current cartesian coordinates              R   N=          36
  2.61630128E-02  6.78673225E-01 -4.74603664E-02  2.31260516E-02  2.33062826E-01
  2.63184415E+00  2.08181177E+00 -2.33826678E-01  3.84069598E+00  4.45810161E+00
 -6.62578824E-01  2.57716027E+00 -2.25323731E+00  6.94954548E-01 -1.22227517E+00
 -3.93173680E+00  3.17799654E-01 -1.34169662E-01 -2.41454830E+00  1.06900816E+00
 -3.21452784E+00  6.52537144E+00 -6.81225354E-01  3.95470706E+00  6.41455805E+00
 -3.16368133E-01  5.98143638E+00  8.38863478E+00 -1.04398950E+00  3.15312524E+00
  4.50039801E+00 -1.07941636E+00  5.48937954E-01  1.73413429E+00  1.10611142E+00
 -1.06913866E+00
Force Field                                I                0
Int Atom Types                             I   N=          12
           0           0           0           0           0           0
           0           0           0           0           0           0
MM charges                                 R   N=          12
  0.00000000E+00  0.00000000E+00  0.00000000E+00  0.00000000E+00  0.00000000E+00
  0.00000000E+00  0.00000000E+00  0.00000000E+00  0.00000000E+00  0.00000000E+00
  0.00000000E+00  0.00000000E+00
Integer atomic weights                     I   N=          12
          12          14          14          12          12           1
           1          12           1           1           1           1
Real atomic weights                        R   N=          12
  1.20000000E+01  1.40030740E+01  1.40030740E+01  1.20000000E+01  1.20000000E+01
  1.00782504E+00  1.00782504E+00  1.20000000E+01  1.00782504E+00  1.00782504E+00
  1.00782504E+00  1.00782504E+00
Atom fragment info                         I   N=          12
           0           0           0           0           0           0
           0           0           0           0           0           0
Atom residue num                           I   N=          12
           0           0           0           0           0           0
           0           0           0           0           0           0
Nuclear spins                              I   N=          12
           0           2           2           0           0           1
           1           0           1           1           1           1
Nuclear ZEff                               R   N=          12
 -3.60000000E+00 -4.55000000E+00 -4.55000000E+00 -3.60000000E+00 -3.60000000E+00
 -1.00000000E+00 -1.00000000E+00 -3.60000000E+00 -1.00000000E+00 -1.00000000E+00
 -1.00000000E+00 -1.00000000E+00
Nuclear ZNuc                               R   N=          12
  6.00000000E+00  7.00000000E+00  7.00000000E+00  6.00000000E+00  6.00000000E+00
  1.00000000E+00  1.00000000E+00  6.00000000E+00  1.00000000E+00  1.00000000E+00
  1.00000000E+00  1.00000000E+00
Nuclear QMom                               R   N=          12
  0.00000000E+00  2.04400000E+00  2.04400000E+00  0.00000000E+00  0.00000000E+00
  0.00000000E+00  0.00000000E+00  0.00000000E+00  0.00000000E+00  0.00000000E+00
  0.00000000E+00  0.00000000E+00
Nuclear GFac                               R   N=          12
  0.00000000E+00  4.03761000E-01  4.03761000E-01  0.00000000E+00  0.00000000E+00
  2.79284600E+00  2.79284600E+00  0.00000000E+00  2.79284600E+00  2.79284600E+00
  2.79284600E+00  2.79284600E+00
MicOpt                                     I   N=          12
          -1          -1          -1          -1          -1          -1
          -1          -1          -1          -1          -1          -1
Number of contracted shells                I               30
Number of primitive shells                 I               54
Pure/Cartesian d shells                    I                1
Pure/Cartesian f shells                    I                0
Highest angular momentum                   I                1
Largest degree of contraction              I                3
Shell types                                I   N=          30
           0          -1          -1           0          -1          -1
           0          -1          -1           0          -1          -1
           0          -1          -1           0           0           0
           0           0          -1          -1           0           0
           0           0           0           0           0           0
Number of primitives per shell             I   N=          30
           3           2           1           3           2           1
           3           2           1           3           2           1
           3           2           1           2           1           2
           1           3           2           1           2           1
           2           1           2           1           2           1
Shell to atom map                          I   N=          30
           1           1           1           2           2           2
           3           3           3           4           4           4
           5           5           5           6           6           7
           7           8           8           8           9           9
          10          10          11          11          12          12
Primitive exponents                        R   N=          54
  1.72256000E+02  2.59109000E+01  5.53335000E+00  3.66498000E+00  7.70545000E-01
  1.95857000E-01  2.42766000E+02  3.64851000E+01  7.81449000E+00  5.42522000E+00
  1.14915000E+00  2.83205000E-01  2.42766000E+02  3.64851000E+01  7.81449000E+00
  5.42522000E+00  1.14915000E+00  2.83205000E-01  1.72256000E+02  2.59109000E+01
  5.53335000E+00  3.66498000E+00  7.70545000E-01  1.95857000E-01  1.72256000E+02
  2.59109000E+01  5.53335000E+00  3.66498000E+00  7.70545000E-01  1.95857000E-01
  5.44717800E+00  8.24547240E-01  1.83191580E-01  5.44717800E+00  8.24547240E-01
  1.83191580E-01  1.72256000E+02  2.59109000E+01  5.53335000E+00  3.66498000E+00
  7.70545000E-01  1.95857000E-01  5.44717800E+00  8.24547240E-01  1.83191580E-01
  5.44717800E+00  8.24547240E-01  1.83191580E-01  5.44717800E+00  8.24547240E-01
  1.83191580E-01  5.44717800E+00  8.24547240E-01  1.83191580E-01
Contraction coefficients                   R   N=          54
  6.17669074E-02  3.58794043E-01  7.00713084E-01 -3.95895162E-01  1.21583436E+00
  1.00000000E+00  5.98657005E-02  3.52955003E-01  7.06513006E-01 -4.13300077E-01
  1.22441727E+00  1.00000000E+00  5.98657005E-02  3.52955003E-01  7.06513006E-01
 -4.13300077E-01  1.22441727E+00  1.00000000E+00  6.17669074E-02  3.58794043E-01
  7.00713084E-01 -3.95895162E-01  1.21583436E+00  1.00000000E+00  6.17669074E-02
  3.58794043E-01  7.00713084E-01 -3.95895162E-01  1.21583436E+00  1.00000000E+00
  1.56284979E-01  9.04690877E-01  1.00000000E+00  1.56284979E-01  9.04690877E-01
  1.00000000E+00  6.17669074E-02  3.58794043E-01  7.00713084E-01 -3.95895162E-01
  1.21583436E+00  1.00000000E+00  1.56284979E-01  9.04690877E-01  1.00000000E+00
  1.56284979E-01  9.04690877E-01  1.00000000E+00  1.56284979E-01  9.04690877E-01
  1.00000000E+00  1.56284979E-01  9.04690877E-01  1.00000000E+00
P(S=P) Contraction coefficients            R   N=          54
  0.00000000E+00  0.00000000E+00  0.00000000E+00  2.36459947E-01  8.60618806E-01
  1.00000000E+00  0.00000000E+00  0.00000000E+00  0.00000000E+00  2.37972016E-01
  8.58953059E-01  1.00000000E+00  0.00000000E+00  0.00000000E+00  0.00000000E+00
  2.37972016E-01  8.58953059E-01  1.00000000E+00  0.00000000E+00  0.00000000E+00
  0.00000000E+00  2.36459947E-01  8.60618806E-01  1.00000000E+00  0.00000000E+00
  0.00000000E+00  0.00000000E+00  2.36459947E-01  8.60618806E-01  1.00000000E+00
  0.00000000E+00  0.00000000E+00  0.00000000E+00  0.00000000E+00  0.00000000E+00
  0.00000000E+00  0.00000000E+00  0.00000000E+00  0.00000000E+00  2.36459947E-01
  8.60618806E-01  1.00000000E+00  0.00000000E+00  0.00000000E+00  0.00000000E+00
  0.00000000E+00  0.00000000E+00  0.00000000E+00  0.00000000E+00  0.00000000E+00
  0.00000000E+00  0.00000000E+00  0.00000000E+00  0.00000000E+00
Coordinates of each shell                  R   N=          90
  2.61630128E-02  6.78673225E-01 -4.74603664E-02  2.61630128E-02  6.78673225E-01
 -4.74603664E-02  2.61630128E-02  6.78673225E-01 -4.74603664E-02  2.31260516E-02
  2.33062826E-01  2.63184415E+00  2.31260516E-02  2.33062826E-01  2.63184415E+00
  2.31260516E-02  2.33062826E-01  2.63184415E+00  2.08181177E+00 -2.33826678E-01
  3.84069598E+00  2.08181177E+00 -2.33826678E-01  3.84069598E+00  2.08181177E+00
 -2.33826678E-01  3.84069598E+00  4.45810161E+00 -6.62578824E-01  2.57716027E+00
  4.45810161E+00 -6.62578824E-01  2.57716027E+00  4.45810161E+00 -6.62578824E-01
  2.57716027E+00 -2.25323731E+00  6.94954548E-01 -1.22227517E+00 -2.25323731E+00
  6.94954548E-01 -1.22227517E+00 -2.25323731E+00  6.94954548E-01 -1.22227517E+00
 -3.93173680E+00  3.17799654E-01 -1.34169662E-01 -3.93173680E+00  3.17799654E-01
 -1.34169662E-01 -2.41454830E+00  1.06900816E+00 -3.21452784E+00 -2.41454830E+00
  1.06900816E+00 -3.21452784E+00  6.52537144E+00 -6.81225354E-01  3.95470706E+00
  6.52537144E+00 -6.81225354E-01  3.95470706E+00  6.52537144E+00 -6.81225354E-01
  3.95470706E+00  6.41455805E+00 -3.16368133E-01  5.98143638E+00  6.41455805E+00
 -3.16368133E-01  5.98143638E+00  8.38863478E+00 -1.04398950E+00  3.15312524E+00
  8.38863478E+00 -1.04398950E+00  3.15312524E+00  4.50039801E+00 -1.07941636E+00
  5.48937954E-01  4.50039801E+00 -1.07941636E+00  5.48937954E-01  1.73413429E+00
  1.10611142E+00 -1.06913866E+00  1.73413429E+00  1.10611142E+00 -1.06913866E+00
Constraint Structure                       R   N=          36
  2.61630128E-02  6.78673225E-01 -4.74603664E-02  2.31260516E-02  2.33062826E-01
  2.63184415E+00  2.08181177E+00 -2.33826678E-01  3.84069598E+00  4.45810161E+00
 -6.62578824E-01  2.57716027E+00 -2.25323731E+00  6.94954548E-01 -1.22227517E+00
 -3.93173680E+00  3.17799654E-01 -1.34169662E-01 -2.41454830E+00  1.06900816E+00
 -3.21452784E+00  6.52537144E+00 -6.81225354E-01  3.95470706E+00  6.41455805E+00
 -3.16368133E-01  5.98143638E+00  8.38863478E+00 -1.04398950E+00  3.15312524E+00
  4.50039801E+00 -1.07941636E+00  5.48937954E-01  1.73413429E+00  1.10611142E+00
 -1.06913866E+00
Num ILSW                                   I              100
ILSW                                       I   N=         100
           0           1           0           0           2           0
           0           0           0           0         402          -1
           0           0           0           0           2           0
           0           0           1           0           1           0
           1           1           0           0           0           0
           0           0      100000           0          -1           0
           0           0           0           0           0           0
           0           0           0           1           0           0
           0           0           1           0           0           0
           0           0           4          41           0           0
           0           0           5           0           0           0
           0           0           0           0           0           0
           0           0           0           0           0           0
           0           0           0           0           0           0
           0           0           0           0           0           0
           0           0           0           0           0           0
           0           0           0           0
Num RLSW                                   I               41
RLSW                                       R   N=          41
  8.00000000E-01  7.20000000E-01  1.00000000E+00  8.10000000E-01  2.00000000E-01
  0.00000000E+00  0.00000000E+00  1.00000000E+00  0.00000000E+00  0.00000000E+00
  0.00000000E+00  0.00000000E+00  1.00000000E+00  0.00000000E+00  0.00000000E+00
  0.00000000E+00  0.00000000E+00  1.00000000E+00  0.00000000E+00  0.00000000E+00
  0.00000000E+00  0.00000000E+00  1.00000000E+00  0.00000000E+00  0.00000000E+00
  0.00000000E+00  0.00000000E+00  1.00000000E+00  0.00000000E+00  0.00000000E+00
  0.00000000E+00  0.00000000E+00  1.00000000E+00  0.00000000E+00  0.00000000E+00
  0.00000000E+00  0.00000000E+00  0.00000000E+00  1.00000000E+00  1.00000000E+00
  0.00000000E+00
MxBond                                     I                3
NBond                                      I   N=          12
           3           2           2           3           3           1
           1           3           1           1           1           1
IBond                                      I   N=          36
           2           5          12           1           3           0
           2           4           0           3           8          11
           1           6           7           5           0           0
           5           0           0           4           9          10
           8           0           0           8           0           0
           4           0           0           1           0           0
RBond                                      R   N=          36
  1.00000000E+00  2.00000000E+00  1.00000000E+00  1.00000000E+00  2.00000000E+00
  0.00000000E+00  2.00000000E+00  1.00000000E+00  0.00000000E+00  1.00000000E+00
  2.00000000E+00  1.00000000E+00  2.00000000E+00  1.00000000E+00  1.00000000E+00
  1.00000000E+00  0.00000000E+00  0.00000000E+00  1.00000000E+00  0.00000000E+00
  0.00000000E+00  2.00000000E+00  1.00000000E+00  1.00000000E+00  1.00000000E+00
  0.00000000E+00  0.00000000E+00  1.00000000E+00  0.00000000E+00  0.00000000E+00
  1.00000000E+00  0.00000000E+00  0.00000000E+00  1.00000000E+00  0.00000000E+00
  0.00000000E+00
Virial Ratio                               R      2.008627458650246E+00
SCF Energy                                 R     -2.639471656976560E+02
Total Energy                               R     -2.639471656976560E+02
RMS Force                                  R      1.004982749314592E-02
RMS Density                                R      7.977229638753557E-09
External E-field                           R   N=          35
  0.00000000E+00  0.00000000E+00  0.00000000E+00  0.00000000E+00  0.00000000E+00
  0.00000000E+00  0.00000000E+00  0.00000000E+00  0.00000000E+00  0.00000000E+00
  0.00000000E+00  0.00000000E+00  0.00000000E+00  0.00000000E+00  0.00000000E+00
  0.00000000E+00  0.00000000E+00  0.00000000E+00  0.00000000E+00  0.00000000E+00
  0.00000000E+00  0.00000000E+00  0.00000000E+00  0.00000000E+00  0.00000000E+00
  0.00000000E+00  0.00000000E+00  0.00000000E+00  0.00000000E+00  0.00000000E+00
  0.00000000E+00  0.00000000E+00  0.00000000E+00  0.00000000E+00  0.00000000E+00
IOpCl                                      I                0
IROHF                                      I                0
Alpha Orbital Energies                     R   N=          66
 -1.43007188E+01 -1.42981925E+01 -1.01677635E+01 -1.01653215E+01 -1.01449084E+01
 -1.01421285E+01 -1.03085983E+00 -8.29827083E-01 -7.84870143E-01 -6.79784840E-01
 -6.17686827E-01 -5.47375582E-01 -5.38905014E-01 -4.72006507E-01 -4.59860801E-01
 -4.15017427E-01 -4.07116851E-01 -3.93825247E-01 -3.38266115E-01 -3.03176758E-01
 -2.61279633E-01 -2.11177536E-01 -8.10450866E-02  9.13821316E-03  6.86942345E-02
  1.17105637E-01  1.38898520E-01  1.47430325E-01  1.65596358E-01  1.71030249E-01
  2.21941261E-01  2.78439812E-01  3.03495664E-01  3.46360403E-01  3.80128751E-01
  4.51853486E-01  6.15841644E-01  6.87486618E-01  7.06670471E-01  7.19575104E-01
  7.35868422E-01  7.63821114E-01  7.82596952E-01  8.09865256E-01  8.27692288E-01
  8.55376986E-01  8.66636918E-01  9.83331994E-01  9.90412343E-01  1.03373797E+00
  1.06029627E+00  1.10096285E+00  1.14900023E+00  1.18204476E+00  1.21459503E+00
  1.24465219E+00  1.33974040E+00  1.37640078E+00  1.38127361E+00  1.41390421E+00
  1.48951646E+00  1.58507296E+00  1.71340037E+00  1.73893971E+00  2.24147540E+00
  2.71596475E+00
Alpha MO coefficients                      R   N=        4356
 -4.55856017E-04 -1.64349578E-03  4.84486661E-04  9.56804472E-06  8.45775772E-04
  1.90822429E-02  6.22122534E-04 -5.11204874E-03  2.34763268E-02  9.45372424E-01
  1.05777752E-01  3.97936543E-03 -5.23140960E-05 -2.95262080E-03 -7.73010043E-02
 -1.73523022E-02  5.94298729E-04  1.08826916E-02 -2.77187297E-01 -3.36092917E-02
 -1.30080981E-04 -6.47276928E-05  1.70349229E-03  4.13120341E-02 -6.25010928E-03
  2.33356428E-03 -1.40736215E-02  1.69303056E-04  1.70312728E-04  1.15218270E-03
  1.46093319E-05 -2.40418295E-04 -7.62297998E-03  7.82297930E-03 -2.57770242E-03
 -2.77619698E-03  3.76713853E-05  3.75202003E-05 -7.26193800E-04 -1.17177776E-04
  3.70098825E-04  9.29090371E-04  6.37696981E-03  2.57646045E-03 -9.49016526E-03
  1.20603047E-03  5.14512357E-03 -1.46629935E-03 -3.31232891E-03 -7.30055759E-05
 -4.49174886E-04  3.18971744E-04 -5.42897548E-05 -1.78050880E-04 -3.88264556E-04
 -3.15857774E-03  1.27175350E-03  3.40799540E-03 -6.98828094E-04 -1.27264386E-03
  5.52306962E-04  1.86689847E-03  8.73578631E-04 -2.41305427E-03 -8.09182527E-04
  4.01690397E-03 -1.03398287E-04 -9.45105664E-04 -1.47674405E-04  1.48701698E-05
 -8.93102569E-04  2.91285742E-03 -5.07034653E-04 -2.25239854E-04  5.76022082E-03
  2.76548649E-01  2.78524282E-02  8.38552814E-04  3.07889002E-05 -7.71305998E-04
 -6.33261011E-04  7.10465786E-03 -2.31342392E-03  5.31183058E-03  9.45174556E-01
  1.04029890E-01  6.99548842E-04  7.34950734E-05 -4.70945263E-03 -6.50905646E-02
 -5.36146237E-03  6.32550012E-04  1.50279370E-02 -4.40573823E-04 -1.86495639E-03
 -2.78077944E-04 -1.22378493E-05 -1.43463849E-04  1.68331762E-02 -2.08064022E-02
  4.22907320E-03  1.01576152E-02 -6.40830369E-05 -5.04447323E-04 -4.33616927E-04
 -7.97005437E-06 -1.78610248E-04  7.44119994E-04  2.63574319E-03  1.70836622E-04
 -8.83273636E-04 -6.04455661E-05  1.78349440E-03 -3.11801678E-04  1.04006666E-04
 -1.45132931E-05 -2.97793559E-04  2.04018421E-04  9.15597069E-05  8.03801446E-04
  2.23315262E-03  3.84421730E-03 -2.18343007E-03 -1.03246515E-02  9.63220042E-04
  5.13588074E-03 -1.40127676E-03 -2.63610944E-03 -5.02947494E-04  2.73557654E-03
  4.54368254E-04 -4.57020856E-04  9.85000680E-01  1.05955154E-01 -3.79687233E-04
  7.36603024E-05 -8.69668795E-05 -7.43222608E-02  1.10100926E-02 -7.66237082E-04
  6.79865147E-03  1.66864004E-04  1.68333172E-04  2.90964676E-04 -5.84570007E-05
 -1.07199699E-04  5.87315801E-03 -2.86392705E-03  5.06184171E-04 -1.31119517E-03
 -7.86506744E-05 -1.00808378E-03 -8.97903956E-05 -7.84025349E-05  5.59490483E-04
  2.54503662E-03  4.03607685E-04  4.64411263E-04 -1.92215194E-03 -1.70226220E-02
 -1.74942226E-03  8.51915261E-04  1.69323086E-04  1.34630218E-04 -2.72678694E-03
 -2.57159010E-03 -1.09911456E-03 -2.55180027E-03 -2.54257537E-02 -7.22838691E-03
 -2.51566516E-03  3.97224017E-05 -1.30714964E-03  3.08729201E-02  1.49052294E-02
 -9.14900467E-05  7.93302626E-03 -1.28010108E-03  1.20257408E-03 -1.14564154E-03
  1.24056388E-03 -1.45757761E-03 -5.53968977E-04 -5.33364417E-05 -2.72348471E-05
 -3.82943227E-06  3.93617011E-03 -2.05947235E-03  4.34041068E-04 -1.13696258E-03
 -1.72526773E-04  1.65255533E-04 -7.54543173E-05  3.01966409E-04 -1.51823608E-04
 -1.67038234E-03 -2.48832562E-03  1.36896410E-02  1.70616769E-02  1.90751806E-03
 -5.26186327E-04 -1.80271356E-04 -6.75618548E-04 -4.78221910E-03  3.58877235E-03
  1.13088897E-03  1.06166026E-03 -6.28978655E-05 -9.15470003E-04 -4.21623390E-04
  6.79808771E-05  3.42353290E-04  2.50147433E-03  1.19667435E-03 -3.85530733E-04
 -1.40355834E-03  1.51109517E-04  1.22132253E-04  1.18304855E-05  4.29133584E-05
 -3.08517324E-04  6.11397236E-03  2.43218407E-03 -4.38043202E-04  1.80403105E-03
  9.85083246E-01  1.06218519E-01  5.38168183E-04 -5.47892203E-05  5.43368558E-04
 -7.73528341E-02 -1.26463261E-02  7.01095385E-04 -7.49890616E-03 -2.55896184E-03
 -8.11503076E-04 -6.94755606E-05  3.33335085E-05  1.66890351E-06  4.49375704E-03
  2.30669999E-03 -4.33611465E-04  1.36818239E-03 -2.03872421E-04  1.91963092E-04
 -1.16767540E-04  3.05808681E-04 -2.11289345E-02 -7.49153367E-03  2.87297972E-03
 -4.72823364E-05  1.89902835E-03  3.44623779E-02 -1.56524794E-02  1.35916170E-04
 -1.00885205E-02 -1.33504161E-03  1.35972880E-03 -1.18327918E-03  1.44440670E-03
 -2.20024478E-03  1.29654085E-02 -2.11079989E-04 -1.29503925E-03  2.52072569E-02
 -1.70568606E-03  2.88448973E-03 -2.79285855E-05  1.22204458E-03  2.62869861E-02
 -1.51785911E-02 -2.17183107E-05 -6.57808000E-03  6.21439965E-05 -2.48167020E-05
  4.23731082E-04 -1.07143497E-04  4.94043535E-04 -2.00350076E-03 -1.05346284E-03
  3.73198258E-04 -6.93651716E-04 -5.53902749E-05 -4.76697234E-04  6.68101411E-06
 -7.68140351E-05  9.37813477E-05  1.74474256E-03 -1.16815045E-03  5.09371546E-04
 -8.27165130E-04  1.91701707E-03 -5.00098512E-05  3.75130654E-04 -1.56570028E-04
  2.17630289E-04 -1.06767870E-03 -2.36674180E-03  4.64358606E-04 -1.48748964E-03
  9.85174062E-01  1.06366120E-01  6.51403841E-05 -5.24507775E-05  6.04718770E-05
 -7.82053429E-02 -7.76211244E-03  2.49749788E-04 -5.15699767E-03 -1.89828051E-03
  1.44688186E-02 -2.20673943E-03  1.36406528E-02 -5.39079158E-03 -7.75189394E-04
  1.61720135E-05  3.69772802E-05 -3.53586611E-05  2.73274050E-03 -1.22540332E-03
 -1.96081546E-04 -6.25182412E-04 -8.79858416E-05  3.67981504E-05 -3.95660936E-05
  1.21161900E-04 -1.62776666E-04 -1.63198976E-04 -9.65256728E-04  1.93119407E-03
  1.86261469E-03 -1.40503364E-04 -3.49955349E-04  1.61778777E-04 -2.20404336E-04
 -5.13118954E-04  2.30133768E-03 -4.65625759E-04  1.23233574E-03 -5.49753867E-05
 -4.84525529E-04 -8.43929192E-05  7.60915363E-05  5.19469660E-05  1.69389452E-03
  1.24946931E-03 -4.94707303E-04  5.58590415E-04  6.14362013E-05 -3.65431109E-05
 -6.37803977E-04  1.05641995E-04 -1.39341917E-04 -1.96854513E-03  1.01082238E-03
 -3.64061658E-04  5.42592091E-04  2.07822468E-02 -2.89278782E-03 -2.98738245E-03
  3.88653292E-05 -2.26943363E-03  2.99844466E-02  1.43374369E-02  2.89665438E-06
  1.10048846E-02  5.24334181E-03  3.73925982E-04  2.94847876E-05 -3.91353420E-05
 -2.65311281E-05  1.72347199E-03  1.00410866E-03  1.97333162E-04  6.95729362E-04
 -1.10237795E-04  1.85912787E-04 -6.41357196E-05  2.67180069E-04  9.85246709E-01
  1.06565584E-01 -3.44148408E-04  5.69607130E-05 -1.82063808E-04 -8.06514472E-02
  9.46993543E-03 -2.87700527E-04  4.92630735E-03 -1.62518278E-03  1.39738851E-02
 -1.95597697E-03  1.30581609E-02 -9.50514639E-04  1.94781969E-03 -1.81827494E-04
 -2.02610625E-04 -4.91222198E-02  5.66294719E-02  7.94535967E-03 -1.04607439E-02
  5.34848347E-02  5.33898877E-02  4.28191840E-04  6.54942279E-03 -4.32378153E-02
 -1.59283459E-01  1.54892221E-01  1.38463110E-01 -2.15394771E-02  9.25792751E-03
  4.14004874E-01  7.72589816E-02 -2.93271383E-03 -4.33413990E-02 -1.58066300E-01
  1.54004092E-01 -7.61840860E-02  2.24834660E-02 -1.15159207E-01  4.07283569E-01
  8.48189264E-04  3.64995763E-03 -8.60361491E-02 -4.81680612E-02  5.53716832E-02
 -4.84974094E-02  9.81569943E-03  1.81742471E-02  5.45313286E-02  3.82730376E-02
 -5.80765965E-03 -1.90027426E-02 -1.07875030E-02  1.28218466E-02  1.16310234E-02
 -8.29903511E-04  8.71368258E-03  5.39565907E-03 -1.77750614E-02 -5.36475204E-03
  2.17493206E-02  2.04669699E-03 -1.21170464E-02  5.11676240E-03  7.30101111E-03
 -1.13875349E-02  1.39157114E-02 -1.43195746E-02  9.04214638E-04 -6.35134797E-03
  3.29385722E-03 -9.07375966E-03  4.96800489E-03  2.63944177E-02  2.17141635E-03
 -1.16735190E-02  5.02450493E-03  6.67325391E-03  1.47598220E-02 -4.38802727E-03
  1.52351141E-02 -6.30720751E-03 -1.13199408E-01  1.25255908E-01 -4.61348841E-02
 -7.66791850E-03  3.22435361E-02  2.19389727E-01 -1.16624534E-02  8.07540269E-03
 -2.64043611E-02 -8.16833611E-02  7.19187303E-02 -1.58856267E-02  1.59149742E-02
 -8.32857689E-02  2.88731097E-01  3.50487177E-02  4.91676881E-03 -7.02235047E-02
  7.77369925E-02 -6.77954786E-02 -9.46647635E-02  1.78835395E-02  2.16699285E-02
 -2.76001663E-01 -5.04846812E-02  5.27056258E-03  6.07628684E-02  1.31605101E-01
 -1.45985122E-01 -1.02070776E-02 -7.11049196E-03 -6.64092417E-02 -2.58152856E-01
 -3.24851733E-02  7.70962045E-03 -3.86582287E-04 -7.62335762E-02  8.33737473E-02
  5.03141428E-02 -1.79094519E-03  3.36596584E-02  1.48103808E-01 -3.63127257E-03
 -5.41288986E-03  1.95895005E-02  3.29775811E-02 -6.47888658E-03  3.17125280E-02
  4.82618470E-03  9.58672225E-02 -1.05586343E-01  7.00421406E-02 -2.14329348E-03
  3.76730321E-02 -1.82662090E-01  1.50009546E-02 -5.33077397E-03 -1.25470153E-02
 -3.93478540E-02  7.15439156E-03 -3.76958320E-02 -3.61772044E-03 -4.91392136E-02
  1.30666851E-02  4.38668745E-02 -1.37925822E-02 -1.18850571E-01  1.30284783E-01
 -7.22389042E-02  1.84727883E-03 -3.40053448E-02  2.69587596E-01 -1.45770230E-02
 -4.87715529E-04 -8.09399931E-03  2.41345726E-02 -2.58016979E-02 -7.94045674E-02
  2.46870884E-02 -9.91716698E-02 -7.27846715E-02 -3.89630421E-02  1.07965291E-02
 -4.17596912E-02  4.18171422E-02 -4.13736156E-02  1.06259157E-01 -2.03381935E-02
  2.72362968E-02 -1.38232959E-01  4.68016669E-02 -9.62347518E-03  2.81090343E-02
 -1.01685447E-01  1.12119328E-01  7.80846761E-02 -3.44571909E-03  4.23255218E-02
  2.29410645E-01  8.73459712E-03  1.92077600E-03  6.99331857E-03 -1.18769717E-01
  1.30284777E-01  6.67224101E-02 -9.39973630E-04  3.49094955E-02  2.60833930E-01
  8.48295909E-03  8.48065899E-04 -2.24363329E-03  5.67260671E-02  1.72673014E-03
  5.61384991E-02 -6.79536895E-04 -1.10539237E-01  1.21648666E-01 -6.15710606E-02
  7.24353488E-04 -4.26375995E-02  2.43550980E-01 -5.57609525E-04 -1.80315604E-03
 -1.17906003E-02  4.97704278E-02  1.69971759E-03  4.96384630E-02 -2.26974308E-03
  4.80277447E-02  4.60530220E-03  5.85285333E-02  4.16161995E-03  8.76659959E-03
 -8.27681537E-03 -7.14488148E-02  1.83709323E-02 -1.54048887E-01 -3.15200784E-02
 -7.02940794E-05 -2.31811058E-03 -1.85442573E-02  9.97678609E-02 -9.04079767E-02
  1.92579364E-02 -2.43865221E-02  9.74556244E-02 -3.89549703E-01 -3.60753289E-02
 -1.21802503E-02  8.49277584E-02 -1.00247969E-01  9.08223076E-02  9.74492626E-02
 -2.39890807E-02 -2.93963185E-02  3.90628831E-01  5.81606484E-02 -1.14011538E-02
 -7.18143483E-02 -9.17566978E-03  7.77518977E-03 -1.73377455E-01  1.77099753E-02
  8.37300550E-03  3.92139329E-02 -1.54083277E-02 -2.17875183E-03  1.04317664E-02
 -1.17506967E-01  1.24859842E-01  1.42227199E-02  4.27105345E-03 -2.45610821E-02
  3.38281226E-01  1.84487775E-02  6.92085538E-03 -2.86190462E-02  6.87970413E-02
  1.84836660E-02  8.83868791E-02  1.86586210E-02  1.10103299E-01 -1.17007708E-01
 -9.18927551E-03  4.19289505E-03  2.90216693E-02 -3.19823606E-01 -1.34745147E-02
  6.68579233E-03  3.14951603E-02 -6.04636883E-02 -1.61050450E-02 -7.98106834E-02
 -1.67882044E-02 -1.22254170E-03 -6.62272452E-03  3.95383716E-03  9.15450662E-03
  7.88521408E-02 -8.27683554E-02 -1.01080014E-01  6.80047201E-04 -5.95529688E-02
 -2.52494571E-01 -6.47593780E-02  3.29315726E-03 -2.22139322E-02 -2.72889171E-02
  2.99814162E-02  5.78429251E-02 -3.60116700E-02  1.73890746E-01  9.20773109E-02
  3.24442104E-02 -2.11633752E-02  1.03778357E-01 -1.99077495E-02  2.30421432E-02
 -1.86819419E-01  3.55106634E-02  3.32372389E-02  6.29417659E-02 -1.11957035E-01
  2.08457224E-02  2.47277866E-02  7.22392983E-02 -7.50805770E-02  1.14693609E-01
 -3.94571306E-03  5.19457996E-02 -2.33606958E-01  5.41624142E-02 -4.70392552E-03
  4.20343440E-02 -9.48495868E-02  9.89434110E-02 -6.19593447E-02  5.88070174E-04
 -3.69832966E-02  2.80955390E-01 -2.69864729E-02 -2.31478671E-03 -1.44974170E-02
  8.38013588E-02  3.35408904E-02  9.07131962E-02  4.13294167E-02 -9.27868015E-02
  9.63695599E-02  5.71879024E-02 -1.55600599E-03  2.74144466E-02  2.74220865E-01
  2.52729114E-02  1.53726109E-03  1.14722198E-02  7.69933308E-02  3.12240812E-02
  8.69893042E-02  3.97387494E-02 -8.26552881E-02 -3.53156465E-02 -9.28770020E-02
 -3.85784234E-02 -7.92807519E-02  8.50681535E-02  1.10089792E-01  4.98876808E-02
 -1.65942240E-01  2.64658966E-01  7.70493795E-02  3.34896210E-02 -9.45225146E-02
  5.07002884E-02 -4.95150190E-02  5.96535791E-02  2.99060068E-03  6.12499301E-02
 -2.01951314E-01  2.63390230E-02  6.34985240E-03  4.58058296E-02 -4.56586942E-02
  4.53306113E-02  3.17566931E-03  1.70510586E-02  1.69056040E-02  1.82132460E-01
  2.60831283E-03  1.52102668E-02 -2.18158097E-03  7.77725827E-02 -8.34067980E-02
 -5.43206593E-02  3.40561938E-02  1.08396573E-01 -2.61883311E-01 -2.81200006E-02
  2.54013011E-02  7.46119911E-02  4.44133099E-02 -4.47751552E-02  1.54519421E-01
  2.52292001E-02 -4.14251125E-02 -1.58002500E-01  8.12824540E-02  1.51982904E-02
 -3.45246018E-02 -1.17062955E-01 -6.84690144E-02 -2.20677083E-02 -1.21683705E-02