                                                                        
Force     RB3LYP                                                      3-21G               
Number of atoms                            I               12
Info1-9                                    I   N=           9
          25          25           0           0           0         100
           5          18        -502
Charge                                     I                0
Multiplicity                               I                1
Number of electrons                        I               44
Number of alpha electrons                  I               22
Number of beta electrons                   I               22
Number of basis functions                  I               66
Number of independent functions            I               66
Number of point charges in /Mol/           I                0
Number of translation vectors              I                0
Atomic numbers                             I   N=          12
           6           7           7           6           6           1
           1           6           1           1           1           1
Nuclear charges                            R   N=          12
  6.00000000E+00  7.00000000E+00  7.00000000E+00  6.00000000E+00  6.00000000E+00
  1.00000000E+00  1.00000000E+00  6.00000000E+00  1.00000000E+00  1.00000000E+00
  1.00000000E+00  1.00000000E+00
Current cartesian coordinates              R   N=          36
 -4.17128232E-02  1.57168515E+00  1.20926347E-01  2.21049329E-01  1.63028219E+00
  2.86539903E+00  2.17493874E+00  7.43430552E-01  3.97561435E+00  4.13112364E+00
 -4.63784037E-01  2.50319972E+00 -1.54719903E+00 -2.54364990E-02 -1.10813452E+00
 -2.52432440E+00 -1.53759938E+00 -1.30151187E-01 -1.85874759E+00  1.55670998E-01
 -3.12377288E+00  6.18256455E+00 -1.26072858E+00  3.72864512E+00  6.32005409E+00
 -9.89968678E-01  5.75538117E+00  7.73551221E+00 -2.17843291E+00  2.76046229E+00
  3.86172361E+00 -6.98685363E-01  4.81446280E-01  8.97794267E-01  3.13577153E+00
 -8.28680372E-01
Force Field                                I                0
Int Atom Types                             I   N=          12
           0           0           0           0           0           0
           0           0           0           0           0           0
MM charges                                 R   N=          12
  0.00000000E+00  0.00000000E+00  0.00000000E+00  0.00000000E+00  0.00000000E+00
  0.00000000E+00  0.00000000E+00  0.00000000E+00  0.00000000E+00  0.00000000E+00
  0.00000000E+00  0.00000000E+00
Integer atomic weights                     I   N=          12
          12          14          14          12          12           1
           1          12           1           1           1           1
Real atomic weights                        R   N=          12
  1.20000000E+01  1.40030740E+01  1.40030740E+01  1.20000000E+01  1.20000000E+01
  1.00782504E+00  1.00782504E+00  1.20000000E+01  1.00782504E+00  1.00782504E+00
  1.00782504E+00  1.00782504E+00
Atom fragment info                         I   N=          12
           0           0           0           0           0           0
           0           0           0           0           0           0
Atom residue num                           I   N=          12
           0           0           0           0           0           0
           0           0           0           0           0           0
Nuclear spins                              I   N=          12
           0           2           2           0           0           1
           1           0           1           1           1           1
Nuclear ZEff                               R   N=          12
 -3.60000000E+00 -4.55000000E+00 -4.55000000E+00 -3.60000000E+00 -3.60000000E+00
 -1.00000000E+00 -1.00000000E+00 -3.60000000E+00 -1.00000000E+00 -1.00000000E+00
 -1.00000000E+00 -1.00000000E+00
Nuclear ZNuc                               R   N=          12
  6.00000000E+00  7.00000000E+00  7.00000000E+00  6.00000000E+00  6.00000000E+00
  1.00000000E+00  1.00000000E+00  6.00000000E+00  1.00000000E+00  1.00000000E+00
  1.00000000E+00  1.00000000E+00
Nuclear QMom                               R   N=          12
  0.00000000E+00  2.04400000E+00  2.04400000E+00  0.00000000E+00  0.00000000E+00
  0.00000000E+00  0.00000000E+00  0.00000000E+00  0.00000000E+00  0.00000000E+00
  0.00000000E+00  0.00000000E+00
Nuclear GFac                               R   N=          12
  0.00000000E+00  4.03761000E-01  4.03761000E-01  0.00000000E+00  0.00000000E+00
  2.79284600E+00  2.79284600E+00  0.00000000E+00  2.79284600E+00  2.79284600E+00
  2.79284600E+00  2.79284600E+00
MicOpt                                     I   N=          12
          -1          -1          -1          -1          -1          -1
          -1          -1          -1          -1          -1          -1
Number of contracted shells                I               30
Number of primitive shells                 I               54
Pure/Cartesian d shells                    I                1
Pure/Cartesian f shells                    I                0
Highest angular momentum                   I                1
Largest degree of contraction              I                3
Shell types                                I   N=          30
           0          -1          -1           0          -1          -1
           0          -1          -1           0          -1          -1
           0          -1          -1           0           0           0
           0           0          -1          -1           0           0
           0           0           0           0           0           0
Number of primitives per shell             I   N=          30
           3           2           1           3           2           1
           3           2           1           3           2           1
           3           2           1           2           1           2
           1           3           2           1           2           1
           2           1           2           1           2           1
Shell to atom map                          I   N=          30
           1           1           1           2           2           2
           3           3           3           4           4           4
           5           5           5           6           6           7
           7           8           8           8           9           9
          10          10          11          11          12          12
Primitive exponents                        R   N=          54
  1.72256000E+02  2.59109000E+01  5.53335000E+00  3.66498000E+00  7.70545000E-01
  1.95857000E-01  2.42766000E+02  3.64851000E+01  7.81449000E+00  5.42522000E+00
  1.14915000E+00  2.83205000E-01  2.42766000E+02  3.64851000E+01  7.81449000E+00
  5.42522000E+00  1.14915000E+00  2.83205000E-01  1.72256000E+02  2.59109000E+01
  5.53335000E+00  3.66498000E+00  7.70545000E-01  1.95857000E-01  1.72256000E+02
  2.59109000E+01  5.53335000E+00  3.66498000E+00  7.70545000E-01  1.95857000E-01
  5.44717800E+00  8.24547240E-01  1.83191580E-01  5.44717800E+00  8.24547240E-01
  1.83191580E-01  1.72256000E+02  2.59109000E+01  5.53335000E+00  3.66498000E+00
  7.70545000E-01  1.95857000E-01  5.44717800E+00  8.24547240E-01  1.83191580E-01
  5.44717800E+00  8.24547240E-01  1.83191580E-01  5.44717800E+00  8.24547240E-01
  1.83191580E-01  5.44717800E+00  8.24547240E-01  1.83191580E-01
Contraction coefficients                   R   N=          54
  6.17669074E-02  3.58794043E-01  7.00713084E-01 -3.95895162E-01  1.21583436E+00
  1.00000000E+00  5.98657005E-02  3.52955003E-01  7.06513006E-01 -4.13300077E-01
  1.22441727E+00  1.00000000E+00  5.98657005E-02  3.52955003E-01  7.06513006E-01
 -4.13300077E-01  1.22441727E+00  1.00000000E+00  6.17669074E-02  3.58794043E-01
  7.00713084E-01 -3.95895162E-01  1.21583436E+00  1.00000000E+00  6.17669074E-02
  3.58794043E-01  7.00713084E-01 -3.95895162E-01  1.21583436E+00  1.00000000E+00
  1.56284979E-01  9.04690877E-01  1.00000000E+00  1.56284979E-01  9.04690877E-01
  1.00000000E+00  6.17669074E-02  3.58794043E-01  7.00713084E-01 -3.95895162E-01
  1.21583436E+00  1.00000000E+00  1.56284979E-01  9.04690877E-01  1.00000000E+00
  1.56284979E-01  9.04690877E-01  1.00000000E+00  1.56284979E-01  9.04690877E-01
  1.00000000E+00  1.56284979E-01  9.04690877E-01  1.00000000E+00
P(S=P) Contraction coefficients            R   N=          54
  0.00000000E+00  0.00000000E+00  0.00000000E+00  2.36459947E-01  8.60618806E-01
  1.00000000E+00  0.00000000E+00  0.00000000E+00  0.00000000E+00  2.37972016E-01
  8.58953059E-01  1.00000000E+00  0.00000000E+00  0.00000000E+00  0.00000000E+00
  2.37972016E-01  8.58953059E-01  1.00000000E+00  0.00000000E+00  0.00000000E+00
  0.00000000E+00  2.36459947E-01  8.60618806E-01  1.00000000E+00  0.00000000E+00
  0.00000000E+00  0.00000000E+00  2.36459947E-01  8.60618806E-01  1.00000000E+00
  0.00000000E+00  0.00000000E+00  0.00000000E+00  0.00000000E+00  0.00000000E+00
  0.00000000E+00  0.00000000E+00  0.00000000E+00  0.00000000E+00  2.36459947E-01
  8.60618806E-01  1.00000000E+00  0.00000000E+00  0.00000000E+00  0.00000000E+00
  0.00000000E+00  0.00000000E+00  0.00000000E+00  0.00000000E+00  0.00000000E+00
  0.00000000E+00  0.00000000E+00  0.00000000E+00  0.00000000E+00
Coordinates of each shell                  R   N=          90
 -4.17128232E-02  1.57168515E+00  1.20926347E-01 -4.17128232E-02  1.57168515E+00
  1.20926347E-01 -4.17128232E-02  1.57168515E+00  1.20926347E-01  2.21049329E-01
  1.63028219E+00  2.86539903E+00  2.21049329E-01  1.63028219E+00  2.86539903E+00
  2.21049329E-01  1.63028219E+00  2.86539903E+00  2.17493874E+00  7.43430552E-01
  3.97561435E+00  2.17493874E+00  7.43430552E-01  3.97561435E+00  2.17493874E+00
  7.43430552E-01  3.97561435E+00  4.13112364E+00 -4.63784037E-01  2.50319972E+00
  4.13112364E+00 -4.63784037E-01  2.50319972E+00  4.13112364E+00 -4.63784037E-01
  2.50319972E+00 -1.54719903E+00 -2.54364990E-02 -1.10813452E+00 -1.54719903E+00
 -2.54364990E-02 -1.10813452E+00 -1.54719903E+00 -2.54364990E-02 -1.10813452E+00
 -2.52432440E+00 -1.53759938E+00 -1.30151187E-01 -2.52432440E+00 -1.53759938E+00
 -1.30151187E-01 -1.85874759E+00  1.55670998E-01 -3.12377288E+00 -1.85874759E+00
  1.55670998E-01 -3.12377288E+00  6.18256455E+00 -1.26072858E+00  3.72864512E+00
  6.18256455E+00 -1.26072858E+00  3.72864512E+00  6.18256455E+00 -1.26072858E+00
  3.72864512E+00  6.32005409E+00 -9.89968678E-01  5.75538117E+00  6.32005409E+00
 -9.89968678E-01  5.75538117E+00  7.73551221E+00 -2.17843291E+00  2.76046229E+00
  7.73551221E+00 -2.17843291E+00  2.76046229E+00  3.86172361E+00 -6.98685363E-01
  4.81446280E-01  3.86172361E+00 -6.98685363E-01  4.81446280E-01  8.97794267E-01
  3.13577153E+00 -8.28680372E-01  8.97794267E-01  3.13577153E+00 -8.28680372E-01
Constraint Structure                       R   N=          36
 -4.17128232E-02  1.57168515E+00  1.20926347E-01  2.21049329E-01  1.63028219E+00
  2.86539903E+00  2.17493874E+00  7.43430552E-01  3.97561435E+00  4.13112364E+00
 -4.63784037E-01  2.50319972E+00 -1.54719903E+00 -2.54364990E-02 -1.10813452E+00
 -2.52432440E+00 -1.53759938E+00 -1.30151187E-01 -1.85874759E+00  1.55670998E-01
 -3.12377288E+00  6.18256455E+00 -1.26072858E+00  3.72864512E+00  6.32005409E+00
 -9.89968678E-01  5.75538117E+00  7.73551221E+00 -2.17843291E+00  2.76046229E+00
  3.86172361E+00 -6.98685363E-01  4.81446280E-01  8.97794267E-01  3.13577153E+00
 -8.28680372E-01
Num ILSW                                   I              100
ILSW                                       I   N=         100
           0           1           0           1           2           0
           0           0           0           0         402          -1
           0           0           0           0           2           0
           0           0           1           0           1           0
           1           1           0           0           0           0
           0           0      100000           0          -1           0
           0           0           0           0           0           0
           0           0           0           1           0           0
           0           0           1           0           0           0
           0           0           4          41           0           0
           0           0           5           0           0           0
           0           0           0           0           0           0
           0           0           0           0           0           0
           0           0           0           0           0           0
           0           0           0           0           0           0
           0           0           0           0           0           0
           0           0           0           0
Num RLSW                                   I               41
RLSW                                       R   N=          41
  8.00000000E-01  7.20000000E-01  1.00000000E+00  8.10000000E-01  2.00000000E-01
  0.00000000E+00  0.00000000E+00  1.00000000E+00  0.00000000E+00  0.00000000E+00
  0.00000000E+00  0.00000000E+00  1.00000000E+00  0.00000000E+00  0.00000000E+00
  0.00000000E+00  0.00000000E+00  1.00000000E+00  0.00000000E+00  0.00000000E+00
  0.00000000E+00  0.00000000E+00  1.00000000E+00  0.00000000E+00  0.00000000E+00
  0.00000000E+00  0.00000000E+00  1.00000000E+00  0.00000000E+00  0.00000000E+00
  0.00000000E+00  0.00000000E+00  1.00000000E+00  0.00000000E+00  0.00000000E+00
  0.00000000E+00  0.00000000E+00  0.00000000E+00  1.00000000E+00  1.00000000E+00
  0.00000000E+00
MxBond                                     I                3
NBond                                      I   N=          12
           3           2           2           3           3           1
           1           3           1           1           1           1
IBond                                      I   N=          36
           2           5          12           1           3           0
           2           4           0           3           8          11
           1           6           7           5           0           0
           5           0           0           4           9          10
           8           0           0           8           0           0
           4           0           0           1           0           0
RBond                                      R   N=          36
  1.00000000E+00  2.00000000E+00  1.00000000E+00  1.00000000E+00  2.00000000E+00
  0.00000000E+00  2.00000000E+00  1.00000000E+00  0.00000000E+00  1.00000000E+00
  2.00000000E+00  1.00000000E+00  2.00000000E+00  1.00000000E+00  1.00000000E+00
  1.00000000E+00  0.00000000E+00  0.00000000E+00  1.00000000E+00  0.00000000E+00
  0.00000000E+00  2.00000000E+00  1.00000000E+00  1.00000000E+00  1.00000000E+00
  0.00000000E+00  0.00000000E+00  1.00000000E+00  0.00000000E+00  0.00000000E+00
  1.00000000E+00  0.00000000E+00  0.00000000E+00  1.00000000E+00  0.00000000E+00
  0.00000000E+00
Virial Ratio                               R      2.008651014523270E+00
SCF Energy                                 R     -2.639451558193488E+02
Total Energy                               R     -2.639451558193488E+02
RMS Force                                  R      3.409229227107837E-06
RMS Density                                R      6.587007469194622E-09
External E-field                           R   N=          35
  0.00000000E+00  0.00000000E+00  0.00000000E+00  0.00000000E+00  0.00000000E+00
  0.00000000E+00  0.00000000E+00  0.00000000E+00  0.00000000E+00  0.00000000E+00
  0.00000000E+00  0.00000000E+00  0.00000000E+00  0.00000000E+00  0.00000000E+00
  0.00000000E+00  0.00000000E+00  0.00000000E+00  0.00000000E+00  0.00000000E+00
  0.00000000E+00  0.00000000E+00  0.00000000E+00  0.00000000E+00  0.00000000E+00
  0.00000000E+00  0.00000000E+00  0.00000000E+00  0.00000000E+00  0.00000000E+00
  0.00000000E+00  0.00000000E+00  0.00000000E+00  0.00000000E+00  0.00000000E+00
IOpCl                                      I                0
IROHF                                      I                0
Alpha Orbital Energies                     R   N=          66
 -1.43105626E+01 -1.43064209E+01 -1.01681330E+01 -1.01650231E+01 -1.01497947E+01
 -1.01285346E+01 -1.04229693E+00 -8.26184338E-01 -7.83376018E-01 -6.83156041E-01
 -6.18938274E-01 -5.49885647E-01 -5.25400012E-01 -4.76273460E-01 -4.69439238E-01
 -4.15540154E-01 -4.03787995E-01 -3.84673249E-01 -3.58965529E-01 -2.82883962E-01
 -2.77243166E-01 -2.14261360E-01 -7.47536477E-02  1.19125905E-02  4.02562367E-02
  1.34024843E-01  1.38871457E-01  1.51710988E-01  1.58665382E-01  1.69826489E-01
  1.99221457E-01  2.81125033E-01  3.11025376E-01  3.60894944E-01  3.72976820E-01
  4.33378883E-01  6.36755771E-01  6.67634626E-01  6.95457736E-01  7.24373596E-01
  7.32836876E-01  7.61735590E-01  7.91810808E-01  8.16314755E-01  8.18342441E-01
  8.48995833E-01  8.62854748E-01  9.85742334E-01  1.00580795E+00  1.02837129E+00
  1.05589994E+00  1.06417638E+00  1.11681154E+00  1.13539604E+00  1.18314675E+00
  1.27838919E+00  1.32830525E+00  1.36521726E+00  1.37152683E+00  1.43569285E+00
  1.45065899E+00  1.53069354E+00  1.71385568E+00  1.85745724E+00  2.24573319E+00
  2.67895170E+00
Alpha MO coefficients                      R   N=        4356
  1.64417803E-04  2.50923385E-04 -1.39414256E-04 -1.49041759E-04 -1.36877999E-03
 -5.44029111E-03 -2.93216357E-03  1.58348496E-03 -2.98103981E-03 -1.63794059E-01
 -2.09167056E-02 -7.30352910E-04  4.08296614E-04  6.06374623E-04  3.25868150E-02
  1.27507296E-02 -6.46661362E-03  1.93457323E-04  9.71383202E-01  1.08401066E-01
 -3.42933459E-05 -6.11944862E-04 -5.11485525E-03 -7.70350199E-02  7.94336265E-04
  2.08421446E-03  2.03687367E-02 -4.75176909E-04 -1.70833796E-03 -8.33967566E-04
  3.85935441E-04  7.27564549E-05  1.91036875E-02 -1.77004868E-02  1.10604236E-02
  1.23449997E-02  9.06105980E-06  1.40307823E-04  2.15442691E-04 -5.30526774E-05
  2.70726872E-04  1.50503233E-04  4.55344231E-05 -7.17986350E-04  1.25717211E-04
  3.18687844E-06 -4.04276283E-04  8.81624810E-05 -2.20120936E-04  3.02875939E-05
 -7.97285553E-06  1.38167457E-04  5.95495639E-05  8.04751479E-04  1.38274159E-03
  3.25489721E-03 -3.47986840E-03 -1.08269912E-02  1.20083288E-03  5.09950527E-03
 -1.47858493E-03 -3.21726617E-03 -1.01008288E-03  3.60569114E-03  5.93829230E-04
 -3.97629629E-04 -4.43373250E-04 -1.64049170E-03  2.40271859E-04  4.67486639E-04
  3.67956550E-04  1.55371832E-02  3.38412117E-03 -2.92158982E-03  2.33111540E-02
  9.71206113E-01  1.06953244E-01  3.09078174E-03 -1.65469354E-03 -3.17715281E-03
 -6.73698160E-02 -9.14646418E-03  5.27950671E-03  1.27651642E-02  1.63239497E-01
  1.53884954E-02  1.26415173E-04 -1.60817745E-04 -5.47430272E-04  7.51934366E-03
 -6.81270297E-03  3.26186534E-03 -5.01648646E-03 -7.45490035E-05 -8.78967005E-04
  8.67969804E-04 -4.08735654E-04 -2.59937044E-04  6.70336574E-04 -2.32894318E-03
  9.94847024E-04  1.10278470E-03 -1.07236460E-05 -3.12347815E-04 -5.36849527E-04
 -6.76123621E-04 -8.10082898E-05  2.05467681E-03  3.81748554E-03  7.28045577E-03
 -7.34833451E-03  9.25861599E-04  5.33756397E-03 -1.40358212E-03 -2.14839563E-03
 -6.81800837E-05 -4.92889175E-04  3.03750950E-04 -1.26131473E-04  1.51829158E-04
  1.18704584E-03 -1.37675231E-03  5.44743531E-04 -1.37795368E-03 -2.19054599E-04
  1.10348158E-03 -1.27239916E-04  5.19709528E-04  3.01740354E-04 -1.43138649E-03
 -5.58514114E-04  3.86313795E-03 -6.30018544E-03 -4.09761183E-04 -1.24335414E-04
 -7.38655245E-05 -7.71743651E-04 -2.19167616E-03 -3.74899931E-04  8.10780616E-04
  1.81279766E-03 -9.17933107E-05 -1.11706117E-03 -4.39833432E-04  2.94341098E-04
  3.12571788E-04  3.04900727E-03  2.43600656E-03 -1.48622013E-03 -4.81693346E-04
  1.75644902E-04  3.01789766E-04 -4.04955171E-05 -1.76153982E-05 -2.98786100E-04
  4.72796051E-03  3.36398260E-03 -1.41799101E-03  2.03065403E-03  9.85003532E-01
  1.06131802E-01  5.34234724E-04 -1.71577942E-04  5.46967376E-04 -7.68075379E-02
 -1.23805574E-02  4.98824414E-03 -6.83015534E-03  9.30137784E-04  3.26227774E-04
  2.16678362E-04 -9.69464860E-05  1.39146906E-04  8.05603878E-04  4.29265279E-04
  1.07058171E-03 -5.88127678E-04  1.12215567E-04  5.95403903E-04 -1.33092067E-04
 -2.63999935E-04 -2.95988724E-02 -8.14792587E-03  2.55878601E-03 -9.96239642E-04
  1.54459706E-03  3.43213779E-02 -1.50698107E-02  5.89075962E-03 -8.74107801E-03
 -1.30772751E-03  1.20516064E-03 -1.19474082E-03  1.29893958E-03 -2.60600478E-03
  1.32777273E-02  2.54018838E-04  3.30807890E-04  9.85611548E-01  1.08433568E-01
  5.35568567E-04 -8.99131065E-04  2.95213464E-04 -8.28146636E-02  6.13543533E-03
  1.03118374E-02  3.71721779E-03  7.77961949E-05  6.86409281E-05  7.22052591E-04
 -1.29151880E-04 -2.08677275E-04  7.86388878E-03 -4.24343253E-03 -3.28229506E-04
 -3.68832840E-03 -1.87106002E-05 -5.81464567E-04  9.07201903E-05  1.10316177E-05
  6.11175374E-04 -1.76429282E-04 -1.38327265E-03  1.14982890E-03 -7.12399916E-04
  6.33143847E-03  1.12251777E-03  2.06954941E-03 -8.66059361E-04  5.00510355E-04
 -1.20927788E-02 -1.30307866E-02  5.56693262E-03 -3.11980259E-03 -1.46034847E-02
 -6.65046120E-03 -1.74819969E-03 -1.87753070E-03 -1.76829648E-03  3.34710020E-02
  1.11405169E-02  1.02732311E-02  1.18423272E-02 -1.72175544E-03  6.02863606E-04
 -9.23534326E-04  2.70424284E-03 -6.88613301E-03 -2.00538577E-03 -2.19127121E-04
  8.88026400E-05 -6.86133636E-05  1.47365524E-02 -5.45532948E-03  1.90451136E-03
 -5.14886751E-03 -2.46860564E-04  8.90284782E-04 -5.32957145E-04 -3.88501179E-04
 -1.77656964E-03  5.49847445E-03 -1.79638311E-03  1.27653211E-02  6.38791485E-03
 -2.15462326E-04 -2.29964734E-04  1.83892820E-04 -2.48844035E-04  2.17378360E-03
  5.46584049E-04 -9.18675605E-04  1.48736275E-03 -4.75034164E-05 -4.36821716E-04
 -1.07298754E-04  7.70721238E-05  1.52484951E-05  1.51405247E-03  1.79152892E-03
 -8.13345156E-04  1.17010718E-03  7.13982399E-05  2.75783694E-05 -5.99670251E-04
  2.89348500E-04 -7.59722541E-05 -2.42509333E-03  1.35762508E-03 -6.55190727E-04
  5.93430155E-04  2.93411315E-02 -1.68207675E-03 -2.73409308E-03  1.03616264E-03
 -1.87818282E-03  2.79165883E-02  1.36262359E-02 -5.11788323E-03  9.32759115E-03
 -8.48507202E-05  4.15072843E-05 -6.38540296E-05 -8.17385867E-05  3.18124387E-06
 -5.29481056E-04 -1.69067898E-04  3.99166388E-04 -8.82655712E-04  1.16891285E-04
  3.60296087E-04 -8.77306701E-05 -2.99879129E-04  9.85038877E-01  1.06433692E-01
 -2.01111141E-04  1.02031100E-04 -5.24107198E-05 -7.93826463E-02  8.53691793E-03
 -3.52013778E-03  3.83095745E-03 -1.74969198E-03  1.42207152E-02 -2.08701600E-03
  1.33176536E-02 -9.37352148E-04  1.89356662E-03 -1.20066773E-04  2.55574833E-04
  1.43026243E-02 -3.14718299E-03  2.13619093E-03  2.21939541E-03  1.28642938E-03
  2.77609453E-02 -1.06079720E-02 -1.12410947E-02 -6.05767883E-03  4.03251828E-05
 -2.27699839E-04  1.25520573E-04  1.00628797E-04  3.57907399E-04 -6.52460622E-04
  6.85827897E-04  7.43885990E-04  3.87168415E-04  1.50714267E-05  1.37960731E-04
  4.89810404E-06 -1.18250245E-04 -2.04060252E-06 -8.53813499E-04 -3.31453810E-04
  3.90140947E-04 -2.39145556E-05 -8.01206032E-04  1.56128060E-04  5.26282668E-05
 -9.17217498E-05 -2.59599725E-04 -9.51727157E-04 -3.82718901E-04  6.72850048E-04
  2.08357244E-03  9.85369861E-01  1.06405383E-01  2.12318829E-04  1.29817448E-04
  1.25200982E-04 -7.87700636E-02 -5.21337223E-03 -5.45042689E-03 -5.28958630E-03
 -1.85012859E-03  1.42694218E-02 -2.04340350E-03  1.35936483E-02  3.33367428E-05
  5.05429275E-06 -3.43580465E-05  3.68297777E-05  5.40702825E-05 -9.10876121E-05
  5.14746340E-04 -4.71959517E-04 -9.02478965E-04  1.23866099E-04  3.68329247E-04
 -1.07207153E-04 -5.06034122E-04 -3.72335004E-04  2.50252991E-03 -9.58590879E-04
  2.60286089E-03 -4.41495856E-02  4.89934298E-02  1.15605681E-02 -6.06637911E-03
  4.80654491E-02  5.62675699E-02 -1.53458266E-03  2.00611668E-03 -4.37778061E-02
 -1.57462060E-01  1.54319241E-01  1.29173999E-01 -6.42701215E-02  1.06828167E-02
  3.98878637E-01  6.25782680E-02 -3.33441976E-02 -4.37008290E-02 -1.61076617E-01
  1.56467514E-01 -8.35832467E-02  3.05546675E-02 -1.14687476E-01  4.21122923E-01
 -1.14128689E-02 -5.50769417E-03 -9.21506735E-02 -4.84326494E-02  5.62263391E-02
 -4.29594017E-02  2.54356460E-02  2.20493018E-02  5.36769438E-02  3.73213988E-02
 -2.13854607E-02 -2.20289174E-02 -9.97477999E-03  1.15121159E-02  7.77346046E-03
  7.04399954E-03  8.75075348E-03  1.38395228E-03 -1.00749917E-02 -1.86917681E-02
  1.91391049E-02  1.55364556E-03 -1.22001457E-02  4.70901358E-03  6.31923748E-03
 -1.07466717E-02  1.32221854E-02 -1.27328989E-02  5.52046922E-03 -4.91394166E-03
 -7.21897682E-04 -4.38869903E-03  6.89217654E-03  2.93429544E-02  1.88503025E-03
 -1.24138322E-02  5.17435213E-03  7.55869769E-03  1.68310749E-02 -7.31795355E-03
  1.25162378E-02 -1.16323768E-02 -1.07474176E-01  1.18237669E-01 -2.33331780E-02
 -2.10277844E-02  2.92201050E-02  2.13865672E-01 -1.13998224E-02  1.93502642E-03
 -1.75737084E-02 -8.49784835E-02  7.49578796E-02 -1.35847663E-02 -1.62574261E-03
 -7.28891280E-02  2.99861989E-01  3.29031383E-02 -2.25746842E-02 -6.41621228E-02
  7.27702362E-02 -6.31798604E-02 -9.34113212E-02  5.14265882E-02  2.45853564E-02
 -2.62501507E-01 -3.90602275E-02  2.65732181E-02  6.14311288E-02  1.36113915E-01
 -1.51012565E-01 -2.25557607E-02 -4.87299735E-04 -6.90554444E-02 -2.62352924E-01
 -1.89973777E-02  8.81981760E-03 -3.47789717E-03 -6.69232322E-02  7.42297291E-02
  3.23418088E-02  3.42576455E-02  3.32144030E-02  1.24780226E-01 -2.28869728E-03
 -5.69444508E-03  1.01115882E-02  2.77780638E-02 -5.68215641E-03  2.67203145E-02
  1.87799171E-04  1.03464253E-01 -1.13012282E-01  6.88306002E-02 -2.84422312E-02
  3.20812358E-02 -2.12540120E-01  1.51555010E-02 -8.86140941E-03 -7.34514306E-03
 -4.47448066E-02  4.75816814E-03 -4.21008881E-02 -2.42864537E-03 -4.89249628E-02
  3.98143480E-03  4.60908486E-02 -5.35192160E-03 -1.31749310E-01  1.42480792E-01
 -5.27404689E-02 -4.64851928E-02 -3.51817899E-02  3.00796596E-01 -4.77932136E-03
 -1.30076393E-02 -8.46302666E-03  1.88668879E-02 -2.21697396E-02 -7.83675479E-02
  2.30594391E-02 -1.01976581E-01 -5.20969200E-02 -3.36799932E-02  9.08108721E-03
 -4.57532477E-02  4.50214234E-02 -4.49238775E-02  9.24573172E-02 -4.68729387E-02
  1.94042719E-02 -1.48549293E-01  4.43356439E-02 -2.14542327E-02  2.56999435E-02
 -9.21793672E-02  1.00059155E-01  6.74747892E-02 -2.84406761E-02  2.88902672E-02
  2.23494096E-01  1.47528455E-02 -6.70521639E-03  3.00311514E-03 -1.22530600E-01
  1.33643521E-01  5.04716380E-02  5.38476316E-02  4.14926370E-02  2.58971528E-01
  5.13797549E-03  7.04103072E-03 -5.43885334E-04  5.50639065E-02  2.51528956E-03
  5.51894469E-02 -1.99182919E-04 -1.02783130E-01  1.13865485E-01 -5.21007758E-02
  2.00108270E-02 -3.29629468E-02  2.23148796E-01  1.67497829E-03 -1.59559692E-03
 -6.31947279E-03  4.83258718E-02  8.27774865E-04  4.87569311E-02 -6.27616262E-04
  4.83641204E-02 -7.10281153E-03  6.18683677E-02  3.35356464E-03 -5.60831483E-03
  5.63948266E-03  6.40866151E-02  7.01524592E-02  1.50749109E-01  2.18105343E-02
  4.70606930E-03  2.91225639E-02  2.49098276E-02 -1.03404988E-01  9.45287306E-02
 -2.76084506E-02  2.33402391E-02 -9.35068362E-02  3.99699555E-01  2.35212500E-02
 -5.73303098E-03 -8.34299853E-02  9.59848250E-02 -8.65319158E-02 -8.32092253E-02
  5.42934967E-02  3.49857316E-02 -3.78089999E-01 -4.35379719E-02  3.61886103E-02
  7.55950069E-02  1.08757719E-02 -9.41920473E-03  1.48884152E-01 -7.45833641E-02
 -1.97833460E-02 -3.79863002E-02  1.95544672E-02 -7.22318961E-03 -5.12229977E-03
  1.14796561E-01 -1.21594145E-01 -1.61883434E-02 -1.70389916E-02  1.02958959E-02
 -3.07445919E-01 -9.19508666E-03 -1.46376633E-02  1.78788346E-02 -6.57722841E-02
 -2.01772131E-02 -7.74837651E-02 -1.79582641E-02 -1.12844572E-01  1.20548960E-01
  8.44691416E-03 -7.75397431E-03 -2.55488182E-02  3.21636025E-01  1.25278066E-02
 -1.11779278E-02 -2.85724368E-02  6.50895330E-02  1.68770016E-02  8.36795020E-02
  1.72419144E-02 -3.13908379E-03  4.38987769E-03  7.98754996E-03 -1.00628082E-03
  6.68903221E-02 -6.57917813E-02 -7.16346522E-02 -7.69544071E-02 -8.60069812E-02
 -2.33365858E-01 -4.40098241E-02 -2.37814287E-02 -3.46289779E-02 -1.77559584E-02
  2.11802158E-02  7.69788346E-02 -4.69635550E-02  1.86311700E-01  5.77442817E-02
  3.74266699E-02 -2.86282548E-02  1.10516223E-01 -1.98820589E-02  2.37674997E-02
 -1.78754477E-01  8.93488349E-02  4.49444993E-02  6.28081039E-02 -1.09882446E-01
  5.37111774E-02  3.22031528E-02  7.91791453E-02 -8.22627163E-02  1.06843549E-01
 -4.92016203E-02  3.45384254E-02 -2.65200613E-01  4.02952190E-02 -1.95255782E-02
  3.29970429E-02 -9.39325423E-02  9.74215871E-02 -2.86238000E-02 -2.76703853E-02
 -3.06727087E-02  2.82285667E-01 -6.53233795E-03 -1.24651472E-02 -6.23551974E-03
  7.65632780E-02  2.91906904E-02  8.29026998E-02  3.83324402E-02 -9.54518307E-02
  9.83576679E-02  6.53688743E-02 -2.82206179E-02  2.61660593E-02  2.96879485E-01
  2.42254698E-02 -9.63454170E-03  6.37326166E-03  8.15727572E-02  3.40510141E-02
  9.40225514E-02  4.27795963E-02 -8.36137571E-02 -1.86734843E-02 -7.24571430E-02
 -3.04925262E-02  6.74589198E-02 -7.28528750E-02 -2.82873897E-02 -8.70281307E-02
  7.96775027E-02 -2.24002273E-01 -2.18197209E-02 -5.66376907E-02  3.93143974E-02
 -3.89012408E-02  3.82025005E-02  2.54475217E-04 -4.02427189E-02  1.58159374E-02
  1.63581462E-01  7.22498001E-03 -3.79868091E-02 -2.38116758E-03  5.87019019E-02
 -5.64986676E-02 -1.02719930E-01  2.65702598E-02 -2.77912007E-02 -2.36680897E-01
 -6.76187313E-02  1.42041422E-02 -3.15024448E-03 -7.84194900E-02  8.43669713E-02
  6.01693000E-02 -7.22395611E-02 -2.05986417E-01  2.52851035E-01  8.05101657E-03
 -3.45970030E-02 -1.34843643E-01 -4.17498710E-02  4.02223934E-02 -6.13906722E-02
 -9.07026727E-02  3.81151108E-03  1.45603489E-01 -2.52851151E-02 -4.95014347E-02
  1.40538751E-02  8.31596979E-02  4.92993426E-02  3.37565752E-02  2.12443589E-02