                                                                        
SP        RB3LYP                                                      3-21G               
Number of atoms                            I                6
Info1-9                                    I   N=           9
          19          19           0           0           0         110
           1          18        -502
Charge                                     I                0
Multiplicity                               I                1
Number of electrons                        I               16
Number of alpha electrons                  I                8
Number of beta electrons                   I                8
Number of basis functions                  I               26
Number of independent functions            I               26
Number of point charges in /Mol/           I                0
Number of translation vectors              I                0
Atomic numbers                             I   N=           6
           6           6           1           1           1           1
Nuclear charges                            R   N=           6
  6.00000000E+00  6.00000000E+00  1.00000000E+00  1.00000000E+00  1.00000000E+00
  1.00000000E+00
Current cartesian coordinates              R   N=          18
 -1.27245664E+00  2.71866656E-02  2.26136670E-01  1.27247265E+00 -2.71814215E-02
  2.26171513E-01 -2.23077821E+00  1.66052446E+00 -3.55117830E-01 -2.31664380E+00
 -1.73904256E+00  1.28965974E-01  2.31667153E+00  1.73903703E+00  1.28973645E-01
  2.23073427E+00 -1.66052434E+00 -3.55133090E-01
Force Field                                I                0
Int Atom Types                             I   N=           6
           0           0           0           0           0           0
MM charges                                 R   N=           6
  0.00000000E+00  0.00000000E+00  0.00000000E+00  0.00000000E+00  0.00000000E+00
  0.00000000E+00
Integer atomic weights                     I   N=           6
          12          12           1           1           1           1
Real atomic weights                        R   N=           6
  1.20000000E+01  1.20000000E+01  1.00782504E+00  1.00782504E+00  1.00782504E+00
  1.00782504E+00
Atom fragment info                         I   N=           6
           0           0           0           0           0           0
Atom residue num                           I   N=           6
           0           0           0           0           0           0
Nuclear spins                              I   N=           6
           0           0           1           1           1           1
Nuclear ZEff                               R   N=           6
 -3.60000000E+00 -3.60000000E+00 -1.00000000E+00 -1.00000000E+00 -1.00000000E+00
 -1.00000000E+00
Nuclear ZNuc                               R   N=           6
  6.00000000E+00  6.00000000E+00  1.00000000E+00  1.00000000E+00  1.00000000E+00
  1.00000000E+00
Nuclear QMom                               R   N=           6
  0.00000000E+00  0.00000000E+00  0.00000000E+00  0.00000000E+00  0.00000000E+00
  0.00000000E+00
Nuclear GFac                               R   N=           6
  0.00000000E+00  0.00000000E+00  2.79284600E+00  2.79284600E+00  2.79284600E+00
  2.79284600E+00
MicOpt                                     I   N=           6
          -1          -1          -1          -1          -1          -1
Number of contracted shells                I               14
Number of primitive shells                 I               24
Pure/Cartesian d shells                    I                1
Pure/Cartesian f shells                    I                0
Highest angular momentum                   I                1
Largest degree of contraction              I                3
Shell types                                I   N=          14
           0          -1          -1           0          -1          -1
           0           0           0           0           0           0
           0           0
Number of primitives per shell             I   N=          14
           3           2           1           3           2           1
           2           1           2           1           2           1
           2           1
Shell to atom map                          I   N=          14
           1           1           1           2           2           2
           3           3           4           4           5           5
           6           6
Primitive exponents                        R   N=          24
  1.72256000E+02  2.59109000E+01  5.53335000E+00  3.66498000E+00  7.70545000E-01
  1.95857000E-01  1.72256000E+02  2.59109000E+01  5.53335000E+00  3.66498000E+00
  7.70545000E-01  1.95857000E-01  5.44717800E+00  8.24547240E-01  1.83191580E-01
  5.44717800E+00  8.24547240E-01  1.83191580E-01  5.44717800E+00  8.24547240E-01
  1.83191580E-01  5.44717800E+00  8.24547240E-01  1.83191580E-01
Contraction coefficients                   R   N=          24
  6.17669074E-02  3.58794043E-01  7.00713084E-01 -3.95895162E-01  1.21583436E+00
  1.00000000E+00  6.17669074E-02  3.58794043E-01  7.00713084E-01 -3.95895162E-01
  1.21583436E+00  1.00000000E+00  1.56284979E-01  9.04690877E-01  1.00000000E+00
  1.56284979E-01  9.04690877E-01  1.00000000E+00  1.56284979E-01  9.04690877E-01
  1.00000000E+00  1.56284979E-01  9.04690877E-01  1.00000000E+00
P(S=P) Contraction coefficients            R   N=          24
  0.00000000E+00  0.00000000E+00  0.00000000E+00  2.36459947E-01  8.60618806E-01
  1.00000000E+00  0.00000000E+00  0.00000000E+00  0.00000000E+00  2.36459947E-01
  8.60618806E-01  1.00000000E+00  0.00000000E+00  0.00000000E+00  0.00000000E+00
  0.00000000E+00  0.00000000E+00  0.00000000E+00  0.00000000E+00  0.00000000E+00
  0.00000000E+00  0.00000000E+00  0.00000000E+00  0.00000000E+00
Coordinates of each shell                  R   N=          42
 -1.27245664E+00  2.71866656E-02  2.26136670E-01 -1.27245664E+00  2.71866656E-02
  2.26136670E-01 -1.27245664E+00  2.71866656E-02  2.26136670E-01  1.27247265E+00
 -2.71814215E-02  2.26171513E-01  1.27247265E+00 -2.71814215E-02  2.26171513E-01
  1.27247265E+00 -2.71814215E-02  2.26171513E-01 -2.23077821E+00  1.66052446E+00
 -3.55117830E-01 -2.23077821E+00  1.66052446E+00 -3.55117830E-01 -2.31664380E+00
 -1.73904256E+00  1.28965974E-01 -2.31664380E+00 -1.73904256E+00  1.28965974E-01
  2.31667153E+00  1.73903703E+00  1.28973645E-01  2.31667153E+00  1.73903703E+00
  1.28973645E-01  2.23073427E+00 -1.66052434E+00 -3.55133090E-01  2.23073427E+00
 -1.66052434E+00 -3.55133090E-01
Constraint Structure                       R   N=          18
 -1.27245664E+00  2.71866656E-02  2.26136670E-01  1.27247265E+00 -2.71814215E-02
  2.26171513E-01 -2.23077821E+00  1.66052446E+00 -3.55117830E-01 -2.31664380E+00
 -1.73904256E+00  1.28965974E-01  2.31667153E+00  1.73903703E+00  1.28973645E-01
  2.23073427E+00 -1.66052434E+00 -3.55133090E-01
Num ILSW                                   I              100
ILSW                                       I   N=         100
           0           1           0           0           2           0
           0           0           0           0         402          -1
           0           0           0           0           0           0
           0           0           1           0           0           0
           1           1           0           0           0           0
           0           0      100000           0          -1           0
           0           0           0           0           0           0
           0           0           0           1           0           0
           0           0           1           0           0           0
           0           0           4          41           0           0
           0           0           5           0           0           0
           0           0           0           0           0           0
           0           0           0           0           0           0
           0           0           0           0           0           0
           0           0           0           0           0           0
           0           0           0           0           0           0
           0           0           0           0
Num RLSW                                   I               41
RLSW                                       R   N=          41
  8.00000000E-01  7.20000000E-01  1.00000000E+00  8.10000000E-01  2.00000000E-01
  0.00000000E+00  0.00000000E+00  1.00000000E+00  0.00000000E+00  0.00000000E+00
  0.00000000E+00  0.00000000E+00  1.00000000E+00  0.00000000E+00  0.00000000E+00
  0.00000000E+00  0.00000000E+00  1.00000000E+00  0.00000000E+00  0.00000000E+00
  0.00000000E+00  0.00000000E+00  1.00000000E+00  0.00000000E+00  0.00000000E+00
  0.00000000E+00  0.00000000E+00  1.00000000E+00  0.00000000E+00  0.00000000E+00
  0.00000000E+00  0.00000000E+00  1.00000000E+00  0.00000000E+00  0.00000000E+00
  0.00000000E+00  0.00000000E+00  0.00000000E+00  1.00000000E+00  1.00000000E+00
  0.00000000E+00
MxBond                                     I                3
NBond                                      I   N=           6
           3           3           1           1           1           1
IBond                                      I   N=          18
           2           3           4           1           5           6
           1           0           0           1           0           0
           2           0           0           2           0           0
RBond                                      R   N=          18
  2.00000000E+00  1.00000000E+00  1.00000000E+00  2.00000000E+00  1.00000000E+00
  1.00000000E+00  1.00000000E+00  0.00000000E+00  0.00000000E+00  1.00000000E+00
  0.00000000E+00  0.00000000E+00  1.00000000E+00  0.00000000E+00  0.00000000E+00
  1.00000000E+00  0.00000000E+00  0.00000000E+00
Virial Ratio                               R      2.008727379949770E+00
SCF Energy                                 R     -7.814498690022975E+01
Total Energy                               R     -7.814498690022975E+01
RMS Density                                R      3.704816268011153E-09
External E-field                           R   N=          35
  0.00000000E+00  0.00000000E+00  0.00000000E+00  0.00000000E+00  0.00000000E+00
  0.00000000E+00  0.00000000E+00  0.00000000E+00  0.00000000E+00  0.00000000E+00
  0.00000000E+00  0.00000000E+00  0.00000000E+00  0.00000000E+00  0.00000000E+00
  0.00000000E+00  0.00000000E+00  0.00000000E+00  0.00000000E+00  0.00000000E+00
  0.00000000E+00  0.00000000E+00  0.00000000E+00  0.00000000E+00  0.00000000E+00
  0.00000000E+00  0.00000000E+00  0.00000000E+00  0.00000000E+00  0.00000000E+00
  0.00000000E+00  0.00000000E+00  0.00000000E+00  0.00000000E+00  0.00000000E+00
IOpCl                                      I                0
IROHF                                      I                0
Alpha Orbital Energies                     R   N=          26
 -1.01179942E+01 -1.01169421E+01 -7.61650451E-01 -5.81716964E-01 -4.72908707E-01
 -4.20122284E-01 -3.62246348E-01 -2.60955619E-01  3.63640625E-03  1.47930217E-01
  1.63003449E-01  1.92064999E-01  2.76248430E-01  3.57585193E-01  6.67582152E-01
  7.11331116E-01  7.34373393E-01  8.00766199E-01  8.38803774E-01  8.78415086E-01
  1.02165285E+00  1.06405020E+00  1.10334797E+00  1.26186425E+00  1.42702254E+00
  1.71368551E+00
Alpha MO coefficients                      R   N=         676
  6.97370730E-01  7.84682330E-02  2.16824573E-03 -3.77252749E-05 -4.73536319E-04
 -7.45802910E-02 -1.67279182E-02  4.09516303E-04  2.79253477E-03 -6.96460871E-01
 -7.83737162E-02  2.17090710E-03 -3.78339687E-05  4.72951468E-04  7.45324622E-02
 -1.67341727E-02  4.09275376E-04 -2.79085308E-03 -7.55349102E-04  9.86056232E-03
 -4.25752237E-04  9.05754530E-03  4.23085819E-04 -9.04336640E-03  7.51943781E-04
 -9.84526016E-03  6.96349631E-01  7.24260928E-02 -1.99154090E-03  1.03841889E-04
 -5.90725376E-04 -3.67550533E-02  4.71856165E-03 -9.50279526E-06  1.95526578E-03
  6.97259659E-01  7.25286198E-02  1.98869114E-03 -1.03864806E-04 -5.91426914E-04
 -3.68532004E-02 -4.69645425E-03  9.29468122E-06  1.95942149E-03 -2.57968511E-03
  1.19400421E-02 -2.04695719E-03  1.07888306E-02 -2.04753507E-03  1.08006359E-02
 -2.58063675E-03  1.19533506E-02 -1.66951245E-01  1.78956695E-01  9.87429084E-02
 -4.93376045E-05 -1.57092831E-02  3.71920028E-01  1.53912596E-02 -2.01406448E-03
 -1.28144034E-02 -1.66951791E-01  1.78956908E-01 -9.87428309E-02  4.69937188E-05
 -1.57147741E-02  3.71923987E-01 -1.53926315E-02  2.01155072E-03 -1.28181579E-02
  8.63722432E-02  5.62728811E-03  7.78476019E-02  5.50786583E-03  7.78473240E-02
  5.50811505E-03  8.63751056E-02  5.62634907E-03 -1.31568187E-01  1.35301334E-01
 -1.41211595E-01  1.33246231E-02 -2.65680263E-02  4.28752603E-01 -5.43432840E-02
  5.39286288E-03 -2.44635723E-02  1.31567249E-01 -1.35300120E-01 -1.41206590E-01
  1.33252181E-02  2.65716936E-02 -4.28748754E-01 -5.43401379E-02  5.39251529E-03
  2.44668267E-02  1.47439293E-01  6.65488252E-02  1.27501078E-01  5.96058770E-02
 -1.27499700E-01 -5.96047604E-02 -1.47437088E-01 -6.65469373E-02  4.56467276E-03
 -3.84167713E-03  1.03822279E-02  2.87470969E-01 -2.22718382E-02 -2.03151914E-02
  7.75364947E-03  1.86095298E-01 -1.34241872E-02 -4.56659900E-03  3.84357164E-03
  1.03919931E-02  2.87473018E-01  2.22739049E-02  2.03234653E-02  7.76019752E-03
  1.86093496E-01  1.34252266E-02  1.40598931E-01  1.05458091E-01 -1.52000164E-01
 -1.14762188E-01  1.52004985E-01  1.14766526E-01 -1.40598286E-01 -1.05458713E-01
  1.23943967E-02 -2.24258572E-02 -3.61125989E-01  3.70411666E-02 -6.98821950E-02
 -4.45629170E-03 -2.08103998E-01  2.15774467E-02 -4.67006134E-02  1.23922323E-02
 -2.24236748E-02  3.61127524E-01 -3.70504656E-02 -6.98790701E-02 -4.44662735E-03
  2.08102289E-01 -2.15833679E-02 -4.66991891E-02  1.41607713E-01  1.34273600E-01
  9.04111485E-02  9.10981457E-02  9.04105660E-02  9.10974931E-02  1.41611584E-01
  1.34277526E-01  1.19172921E-03  8.77114749E-04  6.56159764E-02  2.52724455E-01
 -9.26288971E-02 -1.38118085E-02  4.41267223E-02  1.91551154E-01 -7.53602945E-02
  1.19254177E-03  8.76299767E-04 -6.56173997E-02 -2.52720155E-01 -9.26316064E-02
 -1.38125270E-02 -4.41284001E-02 -1.91547875E-01 -7.53620251E-02  1.61655825E-01
  1.51602369E-01 -1.96307948E-01 -2.01015897E-01 -1.96305224E-01 -2.01012813E-01
  1.61655198E-01  1.51600122E-01 -1.17261282E-02  1.02411543E-02 -6.92076261E-02
  9.41268122E-02  3.21590133E-01  5.60039787E-02 -5.68257658E-02  8.39413693E-02
  3.44300957E-01 -1.17309690E-02  1.02465308E-02  6.92031605E-02 -9.41310257E-02
  3.21590545E-01  5.60193079E-02  5.68257073E-02 -8.39459197E-02  3.44300559E-01
  4.66086355E-02  7.06546244E-02 -4.47504436E-02 -5.08085712E-02 -4.47512067E-02
 -5.08091003E-02  4.66073891E-02  7.06524270E-02 -2.77521369E-02  2.68384452E-02
 -2.97838156E-02  5.24883787E-02  3.48780797E-01  1.43010671E-01 -1.06349743E-01
  1.11811810E-01  6.09723594E-01  2.77558025E-02 -2.68408155E-02 -2.97828577E-02
  5.24895083E-02 -3.48777108E-01 -1.43039005E-01 -1.06345776E-01  1.11810886E-01
 -6.09718227E-01 -5.95858160E-02 -1.61209095E-01 -5.05662792E-03 -2.50128103E-03
  5.06218483E-03  2.51491334E-03  5.95911109E-02  1.61216024E-01 -9.57840865E-02
  5.54084346E-02 -1.51286464E-01 -1.92917734E-02 -4.09718564E-02  1.33914247E+00
 -5.61080716E-01 -8.05728899E-02 -1.35206890E-01 -9.57786958E-02  5.54034330E-02
  1.51284276E-01  1.92848917E-02 -4.09776963E-02  1.33910258E+00  5.61057747E-01
  8.05494339E-02 -1.35238726E-01 -3.68672026E-02 -8.98309306E-01 -3.80354292E-02
 -9.59064882E-01 -3.80326894E-02 -9.59013144E-01 -3.68658697E-02 -8.98297035E-01
 -3.37676289E-02  2.08842135E-02 -3.59353436E-02 -2.45954376E-01  4.28284327E-02
  3.72442908E-01 -7.14623489E-02 -7.27298950E-01  1.57570471E-01  3.37705932E-02
 -2.08851172E-02 -3.59454803E-02 -2.45950630E-01 -4.28268793E-02 -3.72487707E-01
 -7.14900460E-02 -7.27294459E-01 -1.57567975E-01  4.88289748E-02  7.00020014E-01
 -8.90630088E-02 -1.15617810E+00  8.90660046E-02  1.15620526E+00 -4.88260583E-02
 -6.99993250E-01  1.20392769E-01 -6.00149495E-02  8.69949553E-02 -5.47103863E-02
  8.63645180E-02 -1.64286364E+00  1.52066496E-01 -1.90155072E-01  3.41782406E-01
 -1.20395558E-01  6.00179100E-02  8.69919516E-02 -5.47027651E-02 -8.63726188E-02
  1.64290338E+00  1.52076264E-01 -1.90133929E-01 -3.41810775E-01  5.08511482E-02
  1.22634189E+00  3.08905950E-02  6.52511198E-01 -3.08880654E-02 -6.52556881E-01
 -5.08500802E-02 -1.22635981E+00  5.04797299E-03 -5.32624072E-03  3.71122296E-03
 -2.96786748E-01  4.69175322E-02 -1.24022163E-01  9.79296166E-03 -1.45464179E+00
  1.27045963E-01  5.04661643E-03 -5.32361485E-03 -3.71889684E-03  2.96789088E-01
  4.69198690E-02 -1.24025503E-01 -9.81736169E-03  1.45465854E+00  1.27065726E-01
 -1.69195500E-02  1.37349551E+00  9.48040196E-03 -1.21869004E+00  9.48449220E-03
 -1.21868007E+00 -1.69175200E-02  1.37353974E+00 -9.49477875E-02  1.36515604E-02
  2.18572664E-01 -2.90507984E-03  3.43317431E-02  2.29346749E+00  2.35228915E+00
 -6.76532650E-02  1.36412996E-01  9.49482131E-02 -1.36512790E-02  2.18571158E-01
 -2.89511022E-03 -3.43299049E-02 -2.29348841E+00  2.35228350E+00 -6.76066358E-02
 -1.36355362E-01  6.66145703E-02  4.37257947E-01  7.33058126E-02  3.55049852E-01
 -7.33047325E-02 -3.55092271E-01 -6.66268549E-02 -4.37174406E-01 -1.52558585E-02
 -6.67172918E-02 -6.47319568E-01  5.72441487E-03  2.47962587E-02 -4.72317956E-01
  1.02159995E+00 -4.12134005E-02  2.91184271E-02 -1.52539478E-02 -6.67121403E-02
  6.47331737E-01 -5.77760137E-03  2.48063124E-02 -4.72361188E-01 -1.02155201E+00
  4.12841894E-02  2.91282268E-02  1.40616054E-01  1.57153049E-01  1.26798747E-01
  1.22090382E-01  1.26760786E-01  1.22085576E-01  1.40670103E-01  1.57109448E-01
 -1.86427331E-03 -1.06739604E-02  1.43168260E-02 -4.49108422E-01 -5.71548700E-02
  4.17832589E-02 -3.33623928E-02  7.54713282E-01 -8.54638213E-02  1.86540311E-03
  1.06665931E-02  1.42472287E-02 -4.49115111E-01  5.71684883E-02 -4.17100881E-02
 -3.32314665E-02  7.54734653E-01  8.54517213E-02 -4.18278834E-01 -6.57614733E-02
  4.23069314E-01  1.45307047E-03 -4.23101284E-01 -1.47620695E-03  4.18238385E-01
  6.57726979E-02 -1.17720389E-02  2.15074086E-02 -7.57465198E-03  1.17708565E-01
  7.39313439E-01  1.18177318E-01 -7.81384822E-02 -7.95265662E-02 -6.04754559E-01
 -1.17738068E-02  2.15115010E-02  7.57027079E-03 -1.17699345E-01  7.39294296E-01
  1.18206486E-01  7.81431172E-02  7.95044857E-02 -6.04745712E-01 -7.84545372E-02
 -7.82321657E-02 -4.24967946E-02 -3.19485813E-02 -4.24908208E-02 -3.19553854E-02
 -7.84713178E-02 -7.82481902E-02  7.42613567E-03  9.61408377E-03 -1.72883217E-01
  2.71491510E-02  7.47607625E-01  6.56382176E-02  9.28653316E-02  4.38619614E-02
 -9.92996059E-01 -7.42355895E-03 -9.61479579E-03 -1.72878898E-01  2.71532208E-02
 -7.47623755E-01 -6.56502413E-02  9.28492696E-02  4.38770091E-02  9.93013333E-01
 -2.25705338E-02 -9.28911234E-02  9.59490352E-02 -5.39305369E-02 -9.59455063E-02
  5.39316789E-02  2.25891703E-02  9.29004375E-02  8.23324815E-02 -3.47229147E-02
 -6.39285565E-01  7.90690272E-03 -1.31137891E-01 -2.60185342E-02  8.19669119E-01
 -3.87201067E-02  3.56011083E-01 -8.23278987E-02  3.47677559E-02 -6.39307025E-01
  7.93083389E-03  1.31144624E-01  2.59585659E-02  8.19644755E-01 -3.87616403E-02
 -3.56014842E-01  3.81881793E-01  8.30253417E-02  3.99657984E-01 -1.58205775E-02
 -3.99575570E-01  1.58044414E-02 -3.81777281E-01 -8.30925219E-02  3.62735337E-02
  2.82212695E-01  2.24880656E-01  8.36817911E-02  7.94682020E-02 -3.05319828E-01
 -3.75454637E-03 -2.86837378E-01  1.20677655E-02  3.62886160E-02  2.82203671E-01
 -2.24774866E-01 -8.36915550E-02  7.94652110E-02 -3.05391032E-01  3.68023668E-03
  2.86875955E-01  1.21354651E-02  6.05402884E-01 -1.50024706E-01  6.08026807E-01
 -4.39301972E-01  6.08063257E-01 -4.39307853E-01  6.05472242E-01 -1.49996347E-01
  1.63064113E-03  7.70885805E-02  1.12121705E-02 -7.98996464E-01  1.28435601E-01
 -3.60362433E-02  2.31083024E-02  1.99687963E+00 -1.98587730E-01  1.63320353E-03
  7.70846173E-02 -1.11617184E-02  7.98955187E-01  1.28428227E-01 -3.59721087E-02
 -2.32357495E-02 -1.99682032E+00 -1.98565391E-01  3.12277067E-01 -1.19621051E+00
 -1.92561042E-01  1.12691737E+00 -1.92535282E-01  1.12688507E+00  3.12258609E-01
 -1.19612432E+00  9.47172475E-03 -3.71092249E-02  2.17504386E-01  6.20299326E-01
 -4.76844467E-02 -1.38079214E-01 -4.76738264E-01 -8.09531008E-01  8.31993955E-02
 -9.47269663E-03  3.71086938E-02  2.17510253E-01  6.20336971E-01  4.76925663E-02
  1.38083064E-01 -4.76749347E-01 -8.09633188E-01 -8.32193665E-02 -3.01282150E-01
  6.09108134E-01  6.22025600E-01 -1.15983155E+00 -6.22035724E-01  1.15988831E+00
  3.01284665E-01 -6.09164830E-01 -3.78583030E-02  1.04246341E-01 -5.69116003E-01
  2.19729415E-01 -1.13862528E-01  4.45391856E-01  1.25761405E+00 -2.78604696E-01
  1.46688641E-01  3.78581379E-02 -1.04236343E-01 -5.69119010E-01  2.19773560E-01
  1.13874817E-01 -4.45399492E-01  1.25760757E+00 -2.78739653E-01 -1.46690956E-01
 -6.79116122E-01  1.06922678E+00 -3.39463744E-01  4.59088395E-01  3.39481114E-01
 -4.59037908E-01  6.79111819E-01 -1.06927881E+00  1.48401143E-03 -5.65786935E-02
 -5.35445489E-03 -2.16642984E-01  1.14198977E-02  1.45194452E-01  1.23476808E-02
  2.05858185E+00 -1.39896096E-01  1.47932638E-03 -5.65662972E-02  5.36779854E-03
  2.16629548E-01  1.14062236E-02  1.45316687E-01 -1.25305105E-02 -2.05856771E+00
 -1.39881863E-01 -6.47200896E-01 -4.62212873E-01  7.25317832E-01  2.98410995E-01
  7.25311260E-01  2.98447020E-01 -6.47228111E-01 -4.62137565E-01  3.02731771E-02
 -1.23326030E+00  1.19409516E-01 -1.97652449E-02  6.24373331E-02  1.74622060E+00
 -3.23382923E-01 -2.28995119E-02 -1.33066295E-01  3.02731720E-02 -1.23323745E+00
 -1.19413380E-01  1.97726973E-02  6.24452900E-02  1.74616967E+00  3.23410212E-01
  2.28768001E-02 -1.33095520E-01  2.22231106E-01 -7.58803279E-01  1.07878434E-01
 -6.33943154E-01  1.07885803E-01 -6.33940366E-01  2.22233488E-01 -7.58825446E-01
  9.46565870E-03  1.42454744E+00  5.27885298E-02 -6.81560992E-03 -2.13802460E-02
 -3.93484585E+00 -1.14525897E+00  2.89207776E-02  1.73529925E-01 -9.46625179E-03
 -1.42457766E+00  5.27929169E-02 -6.81503387E-03  2.13869689E-02  3.93489196E+00
 -1.14526165E+00  2.88818835E-02 -1.73588504E-01  1.24545166E-01  4.22811329E-01
  1.37791180E-01  3.79517299E-01 -1.37783230E-01 -3.79517768E-01 -1.24559025E-01
 -4.22844681E-01
Total SCF Density                          R   N=         351
  2.03345006E+00  1.14124805E-01  1.24716161E-01 -2.63969784E-03  1.19958954E-02
  3.38628933E-01 -1.46021582E-03  2.09831120E-03 -4.42044353E-03  3.13837346E-01
  1.05480535E-03 -3.24194993E-03 -2.25739386E-03 -4.96727154E-03  2.36666193E-01
 -3.93856659E-01  2.33587163E-01 -5.45853897E-02  2.93882851E-03  5.75378565E-03
  6.65652465E-01 -1.12490636E-02 -2.95069360E-03  1.82416937E-01 -8.00268307E-04
 -1.35695941E-02 -3.90468967E-02  1.04071799E-01  5.33124425E-04  4.59070105E-04
 -1.20324792E-04  2.21357969E-01  6.97430758E-03 -5.76787341E-04  6.08193400E-04
  1.57736703E-01  7.79951979E-03 -1.36725491E-03 -1.97125789E-02  1.48968298E-02
  2.44231261E-01  1.05380488E-02 -2.43627133E-02  2.17097793E-02  2.54715551E-01
  2.13591089E-02 -3.32112666E-02 -8.31905844E-02  4.06887578E-04 -1.12043924E-02
  3.99912400E-02  6.65194369E-03 -1.16954583E-03 -1.26141134E-02  2.03345016E+00
 -3.32112726E-02  2.68323539E-02  8.78966638E-02 -6.81824758E-04  1.09461309E-02
  2.46206153E-02  3.18258886E-02  2.73037462E-04  1.07942087E-02  1.14125357E-01
  1.24715782E-01  8.31919912E-02 -8.78982022E-02 -2.58417957E-01  8.83640835E-03
  1.63316896E-02 -1.89081177E-01 -1.51545173E-01  4.80853433E-03  3.29939577E-02
  2.63892126E-03 -1.19952403E-02  3.38627836E-01 -4.08220795E-04  6.83346686E-04
  8.83938265E-03  1.74329595E-02 -2.20609764E-02 -3.43762439E-03  6.82680103E-03
 -7.08129979E-03 -3.16400849E-02  1.46040514E-03 -2.09861214E-03 -4.42077580E-03
  3.13838352E-01 -1.12004909E-02  1.09418744E-02 -1.63399617E-02  2.20589464E-02
  2.31857934E-01  4.93663431E-02 -1.86878114E-02  2.41269281E-02  2.40441130E-01
  1.05418908E-03 -3.24162361E-03  2.25803111E-03  4.96760701E-03  2.36667773E-01
  3.99897502E-02  2.46210736E-02  1.89075322E-01  3.44389896E-03  4.93752405E-02
 -9.35405117E-02  4.97868545E-02  5.42459349E-03  5.22441410E-02 -3.93858818E-01
  2.33587102E-01  5.45885853E-02 -2.93987621E-03  5.75585940E-03  6.65655914E-01
 -6.65050707E-03 -3.18271674E-02 -1.51544527E-01  6.82504212E-03  1.86857783E-02
 -4.97914027E-02 -9.08985549E-02  3.96555720E-03  2.90773669E-02  1.12493240E-02
  2.95101375E-03  1.82415294E-01 -8.00123844E-04  1.35719912E-02  3.90488803E-02
  1.04070266E-01  1.16921033E-03 -2.72429806E-04  4.81097345E-03 -7.08330014E-03
 -2.41294600E-02 -5.42140133E-03  3.96702203E-03 -1.90942880E-02 -3.22285791E-02
 -5.31718820E-04 -4.59590143E-04 -1.20186562E-04  2.21356783E-01 -6.97541382E-03
  5.74954546E-04  6.08206801E-04  1.57734860E-01 -1.26110311E-02  1.07900940E-02
 -3.30003159E-02  3.16372204E-02  2.40440588E-01  5.22349323E-02 -2.90784083E-02
  3.22254023E-02  2.51569446E-01  7.80025330E-03 -1.36560808E-03  1.97111227E-02
 -1.48978390E-02  2.44232237E-01  1.05423962E-02  2.43639548E-02 -2.17117777E-02
  2.54715839E-01 -6.81967076E-02  6.41256475E-02 -1.09169910E-01  1.85730001E-01
 -3.65690268E-02  1.84759737E-01 -6.11534015E-02  1.29437922E-01 -1.87129602E-02
  8.92867156E-03 -1.32705468E-02  3.17255326E-02 -1.62004408E-02 -8.37542103E-03
 -5.68916874E-02  3.35166166E-02 -2.16015635E-02  3.27313598E-03  1.94663019E-01
  1.39870123E-02  1.81798366E-02 -1.02362616E-01  1.62282479E-01 -9.84240780E-03
  5.71477924E-02 -5.61779057E-02  1.15688941E-01  7.13211304E-03  1.96165674E-02
 -1.93051880E-02  6.92398938E-02 -3.74737628E-02  6.64444526E-03 -4.54693574E-02
  4.43241456E-02 -3.57379180E-02  1.91973578E-02  1.43803395E-01  1.23652742E-01
 -6.15531613E-02  5.78533233E-02 -1.08652720E-01 -1.84951739E-01 -7.49858010E-03
  1.73233338E-01 -6.36922338E-02 -1.34328901E-01 -1.38349338E-02  9.50561791E-03
 -1.33535506E-02  3.03176689E-02  1.69610518E-02 -7.48982355E-03 -5.79108161E-02
  3.12900563E-02  2.39306422E-02 -9.51468186E-03 -3.37201644E-02 -5.58358274E-02
  1.88277567E-01  1.20579379E-02  1.64876388E-02 -1.03275869E-01 -1.68811530E-01
 -6.42125048E-03  5.67779380E-02 -5.81713260E-02 -1.23693693E-01 -1.30818736E-02
  2.02926397E-02 -2.03739997E-02  6.49199611E-02  4.00204542E-02 -1.02920184E-02
 -5.20742565E-02  4.10488409E-02  3.95659016E-02 -1.35114894E-02 -5.77388963E-02
 -5.94380902E-02  1.50835062E-01  1.36479538E-01  9.50539450E-03 -1.33533012E-02
 -3.03175731E-02 -1.69608816E-02 -7.49206090E-03 -5.79099352E-02 -3.12906187E-02
 -2.39298254E-02 -9.51665396E-03 -6.15534910E-02  5.78534310E-02  1.08654542E-01
  1.84950471E-01 -7.49876685E-03  1.73234804E-01  6.36929264E-02  1.34327016E-01
 -1.38357403E-02 -2.34295181E-02 -2.56389415E-02  3.08322839E-02  5.06736171E-02
  1.88277496E-01  2.02923094E-02 -2.03734982E-02 -6.49195249E-02 -4.00199409E-02
 -1.02946198E-02 -5.20725223E-02 -4.10490565E-02 -3.95647992E-02 -1.35135337E-02
  1.20574139E-02  1.64879445E-02  1.03277596E-01  1.68810020E-01 -6.42023784E-03
  5.67791714E-02  5.81721473E-02  1.23691933E-01 -1.30816458E-02 -2.83204868E-02
 -2.72494265E-02  5.06734101E-02  6.92568466E-02  1.50834668E-01  1.36478655E-01
  8.92897417E-03 -1.32709146E-02 -3.17244890E-02  1.61993157E-02 -8.37764493E-03
 -5.68959303E-02 -3.35167825E-02  2.15994470E-02  3.27140329E-03 -6.81969471E-02
  6.41258913E-02  1.09166791E-01 -1.85732099E-01 -3.65727604E-02  1.84760998E-01
  6.11505702E-02 -1.29438233E-01 -1.87161310E-02  2.86372319E-02  4.52774064E-02
 -2.34300070E-02 -2.83216110E-02 -3.37201924E-02 -5.77386371E-02  1.94663899E-01
  1.96182804E-02 -1.93068789E-02 -6.92413774E-02  3.74708916E-02  6.64191655E-03
 -4.54754502E-02 -4.43251451E-02  3.57349589E-02  1.91953587E-02  1.39885101E-02
  1.81794160E-02  1.02361705E-01 -1.62283856E-01 -9.84476758E-03  5.71474613E-02
  5.61765254E-02 -1.15688924E-01  7.12981154E-03  4.52766695E-02  6.10639897E-02
 -2.56383881E-02 -2.72489753E-02 -5.58354993E-02 -5.94369889E-02  1.43803306E-01
  1.23652638E-01
Mulliken Charges                           R   N=           6
 -3.81139430E-01 -3.81142477E-01  1.97450120E-01  1.83690297E-01  1.83689956E-01
  1.97451534E-01
ONIOM Charges                              I   N=          16
           0           0           0           0           0           0
           0           0           0           0           0           0
           0           0           0           0
ONIOM Multiplicities                       I   N=          16
           1           0           0           0           0           0
           0           0           0           0           0           0
           0           0           0           0
Atom Layers                                I   N=           6
           1           1           1           1           1           1
Atom Modifiers                             I   N=           6
           0           0           0           0           0           0
Force Field                                I                0
Int Atom Modified Types                    I   N=           6
           0           0           0           0           0           0
Link Atoms                                 I   N=           6
           0           0           0           0           0           0
Atom Modified MM Charges                   R   N=           6
  0.00000000E+00  0.00000000E+00  0.00000000E+00  0.00000000E+00  0.00000000E+00
  0.00000000E+00
Link Distances                             R   N=          24
  0.00000000E+00  0.00000000E+00  0.00000000E+00  0.00000000E+00  0.00000000E+00
  0.00000000E+00  0.00000000E+00  0.00000000E+00  0.00000000E+00  0.00000000E+00
  0.00000000E+00  0.00000000E+00  0.00000000E+00  0.00000000E+00  0.00000000E+00