 Entering Gaussian System, Link 0=/home/george/soft/gauss//g09/g09
 Initial command:
 /home/george/soft/gauss//g09/l1.exe "/home/george/soft/gauss/scr/Gau-29901.inp" -scrdir="/home/george/soft/gauss/scr/"
 Entering Link 1 = /home/george/soft/gauss//g09/l1.exe PID=     29903.
  
 Copyright (c) 1988,1990,1992,1993,1995,1998,2003,2009,2013,
            Gaussian, Inc.  All Rights Reserved.
  
 This is part of the Gaussian(R) 09 program.  It is based on
 the Gaussian(R) 03 system (copyright 2003, Gaussian, Inc.),
 the Gaussian(R) 98 system (copyright 1998, Gaussian, Inc.),
 the Gaussian(R) 94 system (copyright 1995, Gaussian, Inc.),
 the Gaussian 92(TM) system (copyright 1992, Gaussian, Inc.),
 the Gaussian 90(TM) system (copyright 1990, Gaussian, Inc.),
 the Gaussian 88(TM) system (copyright 1988, Gaussian, Inc.),
 the Gaussian 86(TM) system (copyright 1986, Carnegie Mellon
 University), and the Gaussian 82(TM) system (copyright 1983,
 Carnegie Mellon University). Gaussian is a federally registered
 trademark of Gaussian, Inc.
  
 This software contains proprietary and confidential information,
 including trade secrets, belonging to Gaussian, Inc.
  
 This software is provided under written license and may be
 used, copied, transmitted, or stored only in accord with that
 written license.
  
 The following legend is applicable only to US Government
 contracts under FAR:
  
                    RESTRICTED RIGHTS LEGEND
  
 Use, reproduction and disclosure by the US Government is
 subject to restrictions as set forth in subparagraphs (a)
 and (c) of the Commercial Computer Software - Restricted
 Rights clause in FAR 52.227-19.
  
 Gaussian, Inc.
 340 Quinnipiac St., Bldg. 40, Wallingford CT 06492
  
  
 ---------------------------------------------------------------
 Warning -- This program may not be used in any manner that
 competes with the business of Gaussian, Inc. or will provide
 assistance to any competitor of Gaussian, Inc.  The licensee
 of this program is prohibited from giving any competitor of
 Gaussian, Inc. access to this program.  By using this program,
 the user acknowledges that Gaussian, Inc. is engaged in the
 business of creating and licensing software in the field of
 computational chemistry and represents and warrants to the
 licensee that it is not a competitor of Gaussian, Inc. and that
 it will not use this program in any manner prohibited above.
 ---------------------------------------------------------------
  

 Cite this work as:
 Gaussian 09, Revision D.01,
 M. J. Frisch, G. W. Trucks, H. B. Schlegel, G. E. Scuseria, 
 M. A. Robb, J. R. Cheeseman, G. Scalmani, V. Barone, B. Mennucci, 
 G. A. Petersson, H. Nakatsuji, M. Caricato, X. Li, H. P. Hratchian, 
 A. F. Izmaylov, J. Bloino, G. Zheng, J. L. Sonnenberg, M. Hada, 
 M. Ehara, K. Toyota, R. Fukuda, J. Hasegawa, M. Ishida, T. Nakajima, 
 Y. Honda, O. Kitao, H. Nakai, T. Vreven, J. A. Montgomery, Jr., 
 J. E. Peralta, F. Ogliaro, M. Bearpark, J. J. Heyd, E. Brothers, 
 K. N. Kudin, V. N. Staroverov, T. Keith, R. Kobayashi, J. Normand, 
 K. Raghavachari, A. Rendell, J. C. Burant, S. S. Iyengar, J. Tomasi, 
 M. Cossi, N. Rega, J. M. Millam, M. Klene, J. E. Knox, J. B. Cross, 
 V. Bakken, C. Adamo, J. Jaramillo, R. Gomperts, R. E. Stratmann, 
 O. Yazyev, A. J. Austin, R. Cammi, C. Pomelli, J. W. Ochterski, 
 R. L. Martin, K. Morokuma, V. G. Zakrzewski, G. A. Voth, 
 P. Salvador, J. J. Dannenberg, S. Dapprich, A. D. Daniels, 
 O. Farkas, J. B. Foresman, J. V. Ortiz, J. Cioslowski, 
 and D. J. Fox, Gaussian, Inc., Wallingford CT, 2013.
 
 ******************************************
 Gaussian 09:  AM64L-G09RevD.01 24-Apr-2013
                11-Oct-2017 
 ******************************************
 %RWF=./tmp/8370785104702993942/rwf
 %Int=./tmp/8370785104702993942/int
 %D2E=./tmp/8370785104702993942/d2e
 %Scr=./tmp/8370785104702993942/skr
 %NoSave
 %chk=./tmp/8370785104702993942/chk
 %nproc=3
 Will use up to    3 processors via shared memory.
 %mem=1000mb
 ------------------------
 # B3lyp/3-21g nosym freq
 ------------------------
 1/10=4,30=1,38=1/1,3;
 2/12=2,15=1,17=6,18=5,40=1/2;
 3/5=5,11=2,16=1,25=1,30=1,71=2,74=-5,140=1/1,2,3;
 4//1;
 5/5=2,38=5,98=1/2;
 8/6=4,10=90,11=11/1;
 11/6=1,8=1,9=11,15=111,16=1,31=1/1,2,10;
 10/6=1,31=1/2;
 6/7=2,8=2,9=2,10=2,18=1,28=1/1;
 7/8=1,10=1,25=1,30=1/1,2,3,16;
 1/10=4,30=1/3;
 99//99;


 Symbolic Z-matrix:
 Charge =  0 Multiplicity = 1
 6                    -0.675     0.01713   0.14246 
 6                     0.67501  -0.01712   0.14248 
 1                    -1.1694    0.87051  -0.22371 
 1                    -1.22349  -0.91997   0.08125 
 1                     1.22351   0.91997   0.08125 
 1                     1.16937  -0.87051  -0.22372 
 

 GradGradGradGradGradGradGradGradGradGradGradGradGradGradGradGradGradGrad
 Berny optimization.
 Initialization pass.
 Trust Radius=3.00D-01 FncErr=1.00D-07 GrdErr=1.00D-07
 Number of steps in this run=      2 maximum allowed number of steps=      2.
 GradGradGradGradGradGradGradGradGradGradGradGradGradGradGradGradGradGrad

                          Input orientation:                          
 ---------------------------------------------------------------------
 Center     Atomic      Atomic             Coordinates (Angstroms)
 Number     Number       Type             X           Y           Z
 ---------------------------------------------------------------------
      1          6           0       -0.675003    0.017127    0.142460
      2          6           0        0.675013   -0.017124    0.142482
      3          1           0       -1.169399    0.870509   -0.223715
      4          1           0       -1.223492   -0.919973    0.081246
      5          1           0        1.223509    0.919969    0.081249
      6          1           0        1.169371   -0.870508   -0.223724
 ---------------------------------------------------------------------
                    Distance matrix (angstroms):
                    1          2          3          4          5
     1  C    0.000000
     2  C    1.350450   0.000000
     3  H    1.052032   2.079386   0.000000
     4  H    1.087540   2.103142   1.817072   0.000000
     5  H    2.103145   1.087539   2.412770   3.061568   0.000000
     6  H    2.079351   1.052028   2.915645   2.412726   1.817072
                    6
     6  H    0.000000
 Symmetry turned off by external request.
 Stoichiometry    C2H4
 Framework group  C1[X(C2H4)]
 Deg. of freedom    12
 Full point group                 C1      NOp   1
 Rotational constants (GHZ):    144.7454696     29.7973175     25.3331412
 Standard basis: 3-21G (6D, 7F)
    26 basis functions,    42 primitive gaussians,    26 cartesian basis functions
     8 alpha electrons        8 beta electrons
       nuclear repulsion energy        33.4304074755 Hartrees.
 NAtoms=    6 NActive=    6 NUniq=    6 SFac= 1.00D+00 NAtFMM=   60 NAOKFM=F Big=F
 Integral buffers will be    131072 words long.
 Raffenetti 2 integral format.
 Two-electron integral symmetry is turned off.
 One-electron integrals computed using PRISM.
 NBasis=    26 RedAO= T EigKep=  1.64D-02  NBF=    26
 NBsUse=    26 1.00D-06 EigRej= -1.00D+00 NBFU=    26
 ExpMin= 1.83D-01 ExpMax= 1.72D+02 ExpMxC= 1.72D+02 IAcc=1 IRadAn=         1 AccDes= 0.00D+00
 Harris functional with IExCor=  402 and IRadAn=       1 diagonalized for initial guess.
 HarFok:  IExCor=  402 AccDes= 0.00D+00 IRadAn=         1 IDoV= 1 UseB2=F ITyADJ=14
 ICtDFT=  3500011 ScaDFX=  1.000000  1.000000  1.000000  1.000000
 FoFCou: FMM=F IPFlag=           0 FMFlag=      100000 FMFlg1=           0
         NFxFlg=           0 DoJE=T BraDBF=F KetDBF=T FulRan=T
         wScrn=  0.000000 ICntrl=     500 IOpCl=  0 I1Cent=   200000004 NGrid=           0
         NMat0=    1 NMatS0=      1 NMatT0=    0 NMatD0=    1 NMtDS0=    0 NMtDT0=    0
 Symmetry not used in FoFCou.
 Keep R1 ints in memory in canonical form, NReq=942464.
 Requested convergence on RMS density matrix=1.00D-08 within 128 cycles.
 Requested convergence on MAX density matrix=1.00D-06.
 Requested convergence on             energy=1.00D-06.
 No special actions if energy rises.
 Integral accuracy reduced to 1.0D-05 until final iterations.
 Initial convergence to 1.0D-05 achieved.  Increase integral accuracy.
 SCF Done:  E(RB3LYP) =  -78.1395288747     A.U. after   10 cycles
            NFock= 10  Conv=0.39D-08     -V/T= 2.0088
 DoSCS=F DFT=T ScalE2(SS,OS)=  1.000000  1.000000
 Range of M.O.s used for correlation:     1    26
 NBasis=    26 NAE=     8 NBE=     8 NFC=     0 NFV=     0
 NROrb=     26 NOA=     8 NOB=     8 NVA=    18 NVB=    18
 Symmetrizing basis deriv contribution to polar:
 IMax=3 JMax=2 DiffMx= 0.00D+00
 G2DrvN: will do     7 centers at a time, making    1 passes.
 Calling FoFCou, ICntrl=  3107 FMM=F I1Cent=   0 AccDes= 0.00D+00.
 End of G2Drv F.D. properties file   721 does not exist.
 End of G2Drv F.D. properties file   722 does not exist.
 End of G2Drv F.D. properties file   788 does not exist.
          IDoAtm=111111
          Differentiating once with respect to electric field.
                with respect to dipole field.
          Differentiating once with respect to nuclear coordinates.
 Keep R1 ints in memory in canonical form, NReq=921684.
          There are    21 degrees of freedom in the 1st order CPHF.  IDoFFX=6 NUNeed=     3.
     18 vectors produced by pass  0 Test12= 6.86D-16 4.76D-09 XBig12= 3.48D+01 4.98D+00.
 AX will form    18 AO Fock derivatives at one time.
     18 vectors produced by pass  1 Test12= 6.86D-16 4.76D-09 XBig12= 4.05D+00 7.79D-01.
     18 vectors produced by pass  2 Test12= 6.86D-16 4.76D-09 XBig12= 4.78D-02 9.07D-02.
     18 vectors produced by pass  3 Test12= 6.86D-16 4.76D-09 XBig12= 3.93D-05 2.13D-03.
     15 vectors produced by pass  4 Test12= 6.86D-16 4.76D-09 XBig12= 1.27D-08 3.95D-05.
      3 vectors produced by pass  5 Test12= 6.86D-16 4.76D-09 XBig12= 1.74D-12 4.69D-07.
      1 vectors produced by pass  6 Test12= 6.86D-16 4.76D-09 XBig12= 3.49D-16 6.29D-09.
 InvSVY:  IOpt=1 It=  1 EMax= 8.88D-16
 Solved reduced A of dimension    91 with    21 vectors.
 Isotropic polarizability for W=    0.000000       18.33 Bohr**3.
 End of Minotr F.D. properties file   721 does not exist.
 End of Minotr F.D. properties file   722 does not exist.
 End of Minotr F.D. properties file   788 does not exist.

 **********************************************************************

            Population analysis using the SCF density.

 **********************************************************************

 Alpha  occ. eigenvalues --  -10.11912 -10.11806  -0.76218  -0.58102  -0.47175
 Alpha  occ. eigenvalues --   -0.41947  -0.36319  -0.25811
 Alpha virt. eigenvalues --   -0.00286   0.14722   0.16278   0.19192   0.27437
 Alpha virt. eigenvalues --    0.35525   0.66790   0.71379   0.73487   0.80023
 Alpha virt. eigenvalues --    0.84359   0.87984   1.01570   1.06120   1.09984
 Alpha virt. eigenvalues --    1.22435   1.43061   1.71895
          Condensed to atoms (all electrons):
               1          2          3          4          5          6
     1  C    5.186403   0.535681   0.381798   0.379155  -0.049340  -0.051870
     2  C    0.535681   5.186402  -0.051866  -0.049341   0.379156   0.381799
     3  H    0.381798  -0.051866   0.506180  -0.033439  -0.005642   0.004426
     4  H    0.379155  -0.049341  -0.033439   0.522257   0.003724  -0.005642
     5  H   -0.049340   0.379156  -0.005642   0.003724   0.522256  -0.033438
     6  H   -0.051870   0.381799   0.004426  -0.005642  -0.033438   0.506182
 Mulliken charges:
               1
     1  C   -0.381826
     2  C   -0.381830
     3  H    0.198543
     4  H    0.183285
     5  H    0.183284
     6  H    0.198544
 Sum of Mulliken charges =   0.00000
 Mulliken charges with hydrogens summed into heavy atoms:
               1
     1  C    0.000002
     2  C   -0.000002
 APT charges:
               1
     1  C   -0.091483
     2  C   -0.091498
     3  H    0.063520
     4  H    0.027967
     5  H    0.027972
     6  H    0.063522
 Sum of APT charges =   0.00000
 APT charges with hydrogens summed into heavy atoms:
               1
     1  C    0.000005
     2  C   -0.000005
 Electronic spatial extent (au):  <R**2>=             82.3426
 Charge=              0.0000 electrons
 Dipole moment (field-independent basis, Debye):
    X=              0.0000    Y=              0.0000    Z=             -0.6698  Tot=              0.6698
 Quadrupole moment (field-independent basis, Debye-Ang):
   XX=            -12.4444   YY=            -12.3181   ZZ=            -15.0712
   XY=              0.0972   XZ=              0.0000   YZ=              0.0000
 Traceless Quadrupole moment (field-independent basis, Debye-Ang):
   XX=              0.8335   YY=              0.9598   ZZ=             -1.7933
   XY=              0.0972   XZ=              0.0000   YZ=              0.0000
 Octapole moment (field-independent basis, Debye-Ang**2):
  XXX=             -0.0003  YYY=              0.0000  ZZZ=             -5.0037  XYY=             -0.0001
  XXY=              0.0001  XXZ=             -2.4003  XZZ=             -0.0001  YZZ=              0.0000
  YYZ=             -1.8987  XYZ=              0.7114
 Hexadecapole moment (field-independent basis, Debye-Ang**3):
 XXXX=            -65.8502 YYYY=            -24.6943 ZZZZ=            -17.4012 XXXY=              0.2230
 XXXZ=             -0.0003 YYYX=              0.1666 YYYZ=              0.0000 ZZZX=             -0.0003
 ZZZY=              0.0000 XXYY=            -13.0763 XXZZ=            -14.5015 YYZZ=             -7.3685
 XXYZ=              0.0000 YYXZ=             -0.0001 ZZXY=             -0.2373
 N-N= 3.343040747550D+01 E-N=-2.472646382329D+02  KE= 7.745563703194D+01
  Exact polarizability:  29.205   0.795  18.216   0.000   0.000   7.558
 Approx polarizability:  47.754   0.501  22.175   0.001   0.000   9.047
 Calling FoFJK, ICntrl=    100127 FMM=F ISym2X=0 I1Cent= 0 IOpClX= 0 NMat=1 NMatS=1 NMatT=0.
