                                                                        
Freq      RB3LYP                                                      3-21G               
Number of atoms                            I                6
Info1-9                                    I   N=           9
          19          19           0           0           0         100
           6          18        -502
Charge                                     I                0
Multiplicity                               I                1
Number of electrons                        I               16
Number of alpha electrons                  I                8
Number of beta electrons                   I                8
Number of basis functions                  I               26
Number of independent functions            I               26
Number of point charges in /Mol/           I                0
Number of translation vectors              I                0
Atomic numbers                             I   N=           6
           6           6           1           1           1           1
Nuclear charges                            R   N=           6
  6.00000000E+00  6.00000000E+00  1.00000000E+00  1.00000000E+00  1.00000000E+00
  1.00000000E+00
Current cartesian coordinates              R   N=          18
 -1.09266735E+00  1.01626161E+00  7.72975798E-02  4.63873089E-01  1.61769976E+00
  2.25112586E+00 -2.86928826E+00  2.10344960E+00 -9.88271048E-02 -1.48435892E+00
 -1.01731797E+00 -1.82075942E-01  1.50436259E-01  1.58859010E+00 -1.52386737E+00
  4.83200499E+00 -5.30868327E+00 -5.23656135E-01
Force Field                                I                0
Int Atom Types                             I   N=           6
           0           0           0           0           0           0
MM charges                                 R   N=           6
  0.00000000E+00  0.00000000E+00  0.00000000E+00  0.00000000E+00  0.00000000E+00
  0.00000000E+00
Integer atomic weights                     I   N=           6
          12          12           1           1           1           1
Real atomic weights                        R   N=           6
  1.20000000E+01  1.20000000E+01  1.00782504E+00  1.00782504E+00  1.00782504E+00
  1.00782504E+00
Atom fragment info                         I   N=           6
           0           0           0           0           0           0
Atom residue num                           I   N=           6
           0           0           0           0           0           0
Nuclear spins                              I   N=           6
           0           0           1           1           1           1
Nuclear ZEff                               R   N=           6
 -3.60000000E+00 -3.60000000E+00 -1.00000000E+00 -1.00000000E+00 -1.00000000E+00
 -1.00000000E+00
Nuclear ZNuc                               R   N=           6
  6.00000000E+00  6.00000000E+00  1.00000000E+00  1.00000000E+00  1.00000000E+00
  1.00000000E+00
Nuclear QMom                               R   N=           6
  0.00000000E+00  0.00000000E+00  0.00000000E+00  0.00000000E+00  0.00000000E+00
  0.00000000E+00
Nuclear GFac                               R   N=           6
  0.00000000E+00  0.00000000E+00  2.79284600E+00  2.79284600E+00  2.79284600E+00
  2.79284600E+00
MicOpt                                     I   N=           6
          -1          -1          -1          -1          -1          -1
Number of contracted shells                I               14
Number of primitive shells                 I               24
Pure/Cartesian d shells                    I                1
Pure/Cartesian f shells                    I                0
Highest angular momentum                   I                1
Largest degree of contraction              I                3
Shell types                                I   N=          14
           0          -1          -1           0          -1          -1
           0           0           0           0           0           0
           0           0
Number of primitives per shell             I   N=          14
           3           2           1           3           2           1
           2           1           2           1           2           1
           2           1
Shell to atom map                          I   N=          14
           1           1           1           2           2           2
           3           3           4           4           5           5
           6           6
Primitive exponents                        R   N=          24
  1.72256000E+02  2.59109000E+01  5.53335000E+00  3.66498000E+00  7.70545000E-01
  1.95857000E-01  1.72256000E+02  2.59109000E+01  5.53335000E+00  3.66498000E+00
  7.70545000E-01  1.95857000E-01  5.44717800E+00  8.24547240E-01  1.83191580E-01
  5.44717800E+00  8.24547240E-01  1.83191580E-01  5.44717800E+00  8.24547240E-01
  1.83191580E-01  5.44717800E+00  8.24547240E-01  1.83191580E-01
Contraction coefficients                   R   N=          24
  6.17669074E-02  3.58794043E-01  7.00713084E-01 -3.95895162E-01  1.21583436E+00
  1.00000000E+00  6.17669074E-02  3.58794043E-01  7.00713084E-01 -3.95895162E-01
  1.21583436E+00  1.00000000E+00  1.56284979E-01  9.04690877E-01  1.00000000E+00
  1.56284979E-01  9.04690877E-01  1.00000000E+00  1.56284979E-01  9.04690877E-01
  1.00000000E+00  1.56284979E-01  9.04690877E-01  1.00000000E+00
P(S=P) Contraction coefficients            R   N=          24
  0.00000000E+00  0.00000000E+00  0.00000000E+00  2.36459947E-01  8.60618806E-01
  1.00000000E+00  0.00000000E+00  0.00000000E+00  0.00000000E+00  2.36459947E-01
  8.60618806E-01  1.00000000E+00  0.00000000E+00  0.00000000E+00  0.00000000E+00
  0.00000000E+00  0.00000000E+00  0.00000000E+00  0.00000000E+00  0.00000000E+00
  0.00000000E+00  0.00000000E+00  0.00000000E+00  0.00000000E+00
Coordinates of each shell                  R   N=          42
 -1.09266735E+00  1.01626161E+00  7.72975798E-02 -1.09266735E+00  1.01626161E+00
  7.72975798E-02 -1.09266735E+00  1.01626161E+00  7.72975798E-02  4.63873089E-01
  1.61769976E+00  2.25112586E+00  4.63873089E-01  1.61769976E+00  2.25112586E+00
  4.63873089E-01  1.61769976E+00  2.25112586E+00 -2.86928826E+00  2.10344960E+00
 -9.88271048E-02 -2.86928826E+00  2.10344960E+00 -9.88271048E-02 -1.48435892E+00
 -1.01731797E+00 -1.82075942E-01 -1.48435892E+00 -1.01731797E+00 -1.82075942E-01
  1.50436259E-01  1.58859010E+00 -1.52386737E+00  1.50436259E-01  1.58859010E+00
 -1.52386737E+00  4.83200499E+00 -5.30868327E+00 -5.23656135E-01  4.83200499E+00
 -5.30868327E+00 -5.23656135E-01
Constraint Structure                       R   N=          18
 -1.09266735E+00  1.01626161E+00  7.72975798E-02  4.63873089E-01  1.61769976E+00
  2.25112586E+00 -2.86928826E+00  2.10344960E+00 -9.88271048E-02 -1.48435892E+00
 -1.01731797E+00 -1.82075942E-01  1.50436259E-01  1.58859010E+00 -1.52386737E+00
  4.83200499E+00 -5.30868327E+00 -5.23656135E-01
Num ILSW                                   I              100
ILSW                                       I   N=         100
           0           1           0           0           2           0
           0           0           0           0         402          -1
           0           0           0           0           2           0
           0           0           1           0           1           0
           1           1           0           0           0           0
           0           0      100000           0          -1           0
           0           0           0           0           0           0
           0           0           0           1           0           0
           0           0           1           0           0           0
           0           0           4          41           0           0
           0           0           5           0           0           0
           0           0           0           0           0           0
           0           0           0           0           0           0
           0           0           0           0           0           0
           0           0           0           0           0           0
           0           0           0           0           0           0
           0           0           0           0
Num RLSW                                   I               41
RLSW                                       R   N=          41
  8.00000000E-01  7.20000000E-01  1.00000000E+00  8.10000000E-01  2.00000000E-01
  0.00000000E+00  0.00000000E+00  1.00000000E+00  0.00000000E+00  0.00000000E+00
  0.00000000E+00  0.00000000E+00  1.00000000E+00  0.00000000E+00  0.00000000E+00
  0.00000000E+00  0.00000000E+00  1.00000000E+00  0.00000000E+00  0.00000000E+00
  0.00000000E+00  0.00000000E+00  1.00000000E+00  0.00000000E+00  0.00000000E+00
  0.00000000E+00  0.00000000E+00  1.00000000E+00  0.00000000E+00  0.00000000E+00
  0.00000000E+00  0.00000000E+00  1.00000000E+00  0.00000000E+00  0.00000000E+00
  0.00000000E+00  0.00000000E+00  0.00000000E+00  1.00000000E+00  1.00000000E+00
  0.00000000E+00
MxBond                                     I                4
NBond                                      I   N=           6
           4           1           1           1           1           0
IBond                                      I   N=          24
           2           3           4           5           1           0
           0           0           1           0           0           0
           1           0           0           0           1           0
           0           0           0           0           0           0
RBond                                      R   N=          24
  1.00000000E+00  1.00000000E+00  1.00000000E+00  1.00000000E+00  1.00000000E+00
  0.00000000E+00  0.00000000E+00  0.00000000E+00  1.00000000E+00  0.00000000E+00
  0.00000000E+00  0.00000000E+00  1.00000000E+00  0.00000000E+00  0.00000000E+00
  0.00000000E+00  1.00000000E+00  0.00000000E+00  0.00000000E+00  0.00000000E+00
  0.00000000E+00  0.00000000E+00  0.00000000E+00  0.00000000E+00
Virial Ratio                               R      2.007918579378330E+00
SCF Energy                                 R     -7.781769871360083E+01
Total Energy                               R     -7.781769871360083E+01
RMS Force                                  R      1.220282006758543E-03
RMS Density                                R      1.241869139542718E-09
External E-field                           R   N=          35
  0.00000000E+00  0.00000000E+00  0.00000000E+00  0.00000000E+00  0.00000000E+00
  0.00000000E+00  0.00000000E+00  0.00000000E+00  0.00000000E+00  0.00000000E+00
  0.00000000E+00  0.00000000E+00  0.00000000E+00  0.00000000E+00  0.00000000E+00
  0.00000000E+00  0.00000000E+00  0.00000000E+00  0.00000000E+00  0.00000000E+00
  0.00000000E+00  0.00000000E+00  0.00000000E+00  0.00000000E+00  0.00000000E+00
  0.00000000E+00  0.00000000E+00  0.00000000E+00  0.00000000E+00  0.00000000E+00
  0.00000000E+00  0.00000000E+00  0.00000000E+00  0.00000000E+00  0.00000000E+00
IOpCl                                      I                0
IROHF                                      I                0
Alpha Orbital Energies                     R   N=          26
 -1.02350522E+01 -1.01744231E+01 -8.21879793E-01 -5.78457125E-01 -4.76212601E-01
 -4.74181101E-01 -3.16369922E-01 -1.70309953E-01 -1.45753463E-01 -1.22431489E-01
  9.96662546E-02  1.33100347E-01  1.53309341E-01  2.49851521E-01  6.72908757E-01
  6.82805376E-01  6.86173945E-01  7.45107183E-01  7.57390353E-01  7.93896138E-01
  9.35737199E-01  9.61658534E-01  9.69716742E-01  9.84817452E-01  1.30064871E+00
  1.79193528E+00
Alpha MO coefficients                      R   N=         676
 -8.86953779E-03 -3.61509365E-03 -1.22503630E-03 -4.79635100E-04 -1.98123317E-03
  2.07712945E-02  8.48490074E-03  3.29668433E-03  1.33856005E-02  9.85246760E-01
  9.99245881E-02 -2.32929078E-03 -9.29517341E-04 -3.28865141E-03 -5.39371177E-02
  1.02018241E-02  3.95012637E-03  1.42905433E-02 -1.27068505E-03  2.71813138E-03
 -1.28779124E-03  2.80260275E-03 -1.31500244E-03  3.90494613E-03 -5.68534095E-06
  2.02768151E-05  9.86139849E-01  1.11981126E-01  4.91442678E-04  1.62688621E-04
 -4.52628077E-04 -9.16550830E-02 -5.91099740E-03 -2.02207265E-03 -3.01109166E-03
  8.74256353E-03 -1.92003969E-03  5.85842983E-04  2.24354691E-04  4.41691158E-04
  2.40114719E-02 -8.07606006E-03 -3.16491605E-03 -1.07139145E-02 -3.29049276E-04
  1.49101249E-02 -2.49198656E-04  1.52221398E-02  5.06597318E-04  1.63517126E-02
  4.10901237E-05 -7.09173839E-05 -1.94524968E-01  1.86930951E-01  5.71236737E-02
  2.18916560E-02  4.92006053E-02  5.53033466E-01  3.49720839E-02  1.37267221E-02
  9.77761124E-03 -1.18384368E-01  1.42136795E-01 -8.05731893E-02 -3.11491016E-02
 -1.16413505E-01  2.03290045E-01 -1.60956942E-02 -5.56440291E-03 -2.62555849E-02
  8.63716997E-02 -5.24119489E-03  8.75459118E-02 -6.31631242E-03  1.02509257E-01
 -7.44936691E-03  4.67470884E-05  8.86997301E-04  7.99482759E-02 -7.28490149E-02
  1.70342180E-01  6.68748209E-02  2.37714182E-01 -3.32282721E-01  8.83577463E-02
  3.45192722E-02  1.24954548E-01 -1.64209974E-01  1.86969126E-01 -6.04198473E-02
 -2.30137159E-02 -8.13214440E-02  5.09524013E-01 -4.84670774E-02 -1.73263082E-02
 -6.71534595E-02 -1.28617299E-01 -7.35717587E-02 -1.27223977E-01 -7.08453369E-02
 -9.69754455E-02 -5.74189979E-02  7.30336795E-04  1.83521049E-03  8.98567332E-03
 -1.08642525E-02  3.02986802E-01  6.46553660E-02 -2.17987725E-01 -1.80847307E-02
  2.55953526E-01  5.59070002E-02 -1.68320655E-01  1.93879032E-02 -2.16686172E-02
  9.73976251E-02  2.11600534E-02 -6.96839249E-02 -7.96342781E-02  6.77505405E-02
  1.71583005E-02 -4.03808257E-02 -1.47248309E-01 -1.15707529E-01 -7.32614939E-02
 -5.82240545E-02  2.49943695E-01  2.08448499E-01  1.70884054E-04  1.40556146E-03
  1.38446544E-03 -1.59300508E-03 -1.02189303E-01  3.70776760E-01 -2.81981728E-02
 -5.55849940E-03 -8.49990831E-02  3.16277390E-01 -2.13026016E-02  2.62197949E-03
 -3.21898154E-03 -3.14277836E-02  1.17194847E-01 -8.43991823E-03 -1.04550876E-02
 -1.64086256E-02  6.91411453E-02 -5.26761978E-03  1.85255979E-01  1.40615056E-01
 -2.26236867E-01 -1.66148235E-01  4.37095882E-02  3.74388457E-02 -1.04989688E-04
 -2.93618699E-03  4.93761745E-02 -4.84079817E-02 -1.35938217E-01 -5.38665067E-02
 -2.26983688E-01 -3.13123954E-01 -1.37410688E-01 -5.46969466E-02 -2.16929528E-01
 -1.33217063E-01  1.04686968E-01  2.44137396E-01  9.55587680E-02  3.06158732E-01
  7.16524387E-01  1.39937567E-01  5.71945263E-02  1.66863441E-01  3.90335416E-02
  7.77235152E-02  3.95288471E-02  7.77965937E-02  3.22675195E-02  9.01830316E-02
  1.41941829E-03  5.13375945E-03  1.28447204E-03  2.66479646E-04 -1.94948663E-02
  3.91862637E-02  5.11464462E-03 -1.93861832E-02  2.09225873E-02 -2.27717217E-02
  4.61577379E-03  5.25223151E-04 -8.13582492E-04  1.44477362E-01 -2.89476130E-01
 -2.82128566E-02 -3.70440819E-03  1.68475622E-01 -3.35343591E-01 -3.19982716E-02
  8.39059378E-02  1.82425102E-01 -7.86166312E-02 -1.44017413E-01 -8.16351170E-03
 -1.03496504E-02  2.37086009E-01  5.94496447E-01  2.22053815E-04  3.75649760E-04
  1.90450426E-02 -4.15711400E-02 -2.54257361E-03 -7.43160636E-03 -1.81287317E-02
  4.43161271E-02  3.34380154E-03  1.70996082E-03 -3.78768172E-03 -1.71406802E-01
  3.55273251E-01  2.42892203E-02 -4.12429794E-03 -1.94181991E-01  4.03817018E-01
  2.67786558E-02 -9.72212769E-02 -2.09413797E-01  9.21972303E-02  2.10531222E-01
  4.76202598E-03  1.38130118E-02  1.98032771E-01  4.92450302E-01  7.74249168E-04
  2.04938983E-03 -4.40218708E-02 -2.57565784E-02  5.05178837E-02 -1.94884272E-02
  2.60596592E-02  1.15454941E-02  1.51606117E-02 -1.88105447E-03  3.83169015E-03
  3.33503734E-01  1.88004582E-01 -3.25859235E-01 -1.59864614E-04  4.13555974E-01
  2.33113441E-01 -3.95252367E-01  5.86867646E-02  1.29885447E-01  7.43856954E-02
  1.59612004E-01 -1.46881996E-01 -3.00487563E-01 -5.46615173E-03 -1.17003686E-02
 -1.55444804E-01  7.96234615E-02 -1.36630609E-03  1.59726530E-02 -2.06081960E-01
  2.02537664E+00  1.35324620E-02  4.92179233E-02 -6.96408766E-01 -1.19656032E-02
  4.56411104E-02  7.42365772E-03 -1.68553611E-03  2.20283796E-02  5.13565400E-03
  1.11530963E-02 -9.82084265E-03  1.21357530E-01 -2.48643793E-02 -8.45440299E-01
 -2.40563265E-02 -7.87147436E-01 -7.23563160E-02 -1.39873895E+00  8.97367760E-03
  4.35815264E-03 -5.87417250E-02  3.44135524E-02 -2.99055268E-01 -1.12384945E-01
  1.72457184E-01  7.28452108E-01 -9.96658203E-01 -3.75919765E-01  5.91140258E-01
  1.47883204E-02 -1.31672586E-02  9.89444638E-02  3.58999798E-02  7.33830047E-04
 -1.12600510E-01  3.07363832E-01  1.12819323E-01 -8.28713592E-02 -6.25992260E-02
 -1.07103302E+00 -6.02840156E-02 -9.26903914E-01  9.80026791E-02  1.13760813E+00
  5.94418158E-03  1.83490584E-03  5.63136713E-03 -3.83403241E-03 -1.42539371E-01
  3.67623212E-01  7.56278828E-03 -7.84753324E-02 -4.95171777E-01  1.27014464E+00
  2.76977512E-02  6.17672583E-04 -2.33539251E-03  3.97592126E-02 -9.62104072E-02
 -1.15691049E-06 -1.38169891E-04  1.39007196E-01 -3.51566819E-01 -6.28002684E-03
 -7.22209970E-02 -1.29555145E+00  8.17285867E-02  1.43871602E+00 -6.65159435E-03
 -2.24994025E-02 -7.79264766E-03 -3.21806889E-03  1.01657016E-01 -3.00901640E-02
 -1.61940874E-01 -6.14169287E-02 -1.69454388E-01 -1.63322008E+00 -1.12051545E+00
 -4.29833096E-01 -1.32752431E+00 -1.19093448E-01  8.10030178E-02 -2.09906426E-01
 -8.12529902E-02 -2.85806125E-01  1.88892352E+00 -8.49048355E-01 -3.29105761E-01
 -1.21720590E+00 -5.48517060E-02 -2.59291082E-01 -5.83710410E-02 -2.22765582E-01
 -7.65406159E-02  1.92462080E-01  1.64595219E-03 -4.46557818E-04  1.52420587E-02
 -7.20136334E-02 -1.85587206E-01 -6.00363541E-02 -8.25631225E-01 -5.04467492E-01
  8.85611765E-02  1.65069481E-02  9.80501752E-01 -3.90436597E-02 -4.69692950E-02
  4.07568156E-01  1.65623533E-01  2.01531845E-01 -7.72530014E-02 -4.56103126E-01
 -1.78750002E-01 -5.19397675E-01 -6.61236638E-03  1.17144770E-01 -3.16399056E-03
  1.15021620E-01  3.08567601E-01  6.68273325E-02 -2.16607000E-03  1.04796872E-03
 -3.01853476E-03  7.59876750E-03  3.54250266E-02  4.07236153E-01  3.53525863E-02
  1.30315768E-02 -5.51879061E-02 -7.12700559E-01 -4.87949923E-02  3.95836823E-03
  2.75863714E-03 -1.84545690E-01  8.42772414E-01 -1.21545852E-01  9.69224092E-02
  1.48492878E-01 -6.15364282E-01  7.25093090E-02  2.28751541E-01  1.24546787E-02
 -4.09981434E-01 -7.81213429E-02  9.73612019E-02  2.23746284E-02 -2.29069285E-02
  1.44483515E-02  1.20098972E-02 -1.61660501E-02 -5.56321710E-01 -1.27642329E-01
 -1.13170456E-01 -1.62765837E-02  9.74838410E-01  2.23182119E-01  1.79657782E-01
 -1.31881209E-02  8.33672330E-03 -6.09224558E-01  3.21554677E-02  4.56254152E-01
 -3.44132249E-01  4.55488567E-01 -3.50121180E-02 -2.83304194E-01  3.91494661E-01
  9.92442785E-02  1.92156938E-01  7.41052852E-02 -2.46632208E-01 -7.62805433E-02
 -1.96051101E-02  1.23050822E-02  2.50689353E-02 -8.05241838E-02 -5.42932053E-01
 -2.54942220E-01 -1.14865139E-01  4.25200048E-01  1.17863165E+00  5.51795778E-01
  2.11027588E-01  1.45711496E-02 -7.36298621E-02  1.31250017E-01  1.09914888E-01
 -8.28517065E-01 -6.19473538E-01 -1.12898830E-01 -1.27175510E-01  1.23904528E+00
  1.82293486E-01  1.74447113E-01  1.94654429E-01  1.88914985E-01 -1.68372268E-01
 -8.67314008E-03 -6.96864778E-03  4.68191796E-03  2.98734220E-02 -7.69732078E-02
  2.05660868E-01  1.65105483E-01 -5.70446890E-01  4.88587387E-01 -4.24589984E-01
 -3.48372438E-01  1.07849534E+00  2.47413301E-02 -1.20726970E-01 -6.62970991E-01
 -3.42940170E-01 -4.09533272E-01 -4.03089248E-01  1.00249498E+00  5.22809748E-01
  4.83836127E-01 -4.14134143E-02 -2.07700401E-02 -9.02654712E-02 -6.08291941E-02
  2.37176879E-01  3.46333241E-01  2.22218449E-03 -1.65525461E-03  2.84161753E-04
 -5.34539058E-03  3.57341815E-01 -6.94588138E-01 -6.77916001E-02  2.49013545E-02
 -8.20141340E-01  1.58684187E+00  1.27273498E-01  2.51511549E-03 -1.52743242E-02
 -2.70816539E-01  4.84122481E-01 -8.32785459E-04  6.30800607E-03  4.94621348E-01
 -9.17118661E-01 -2.80816398E-02 -3.57381118E-01 -4.41418194E-01  3.04479582E-01
  4.16068796E-01  1.04915565E-02  5.40254891E-02  1.77573639E-03 -1.44256191E-03
  1.00124151E-01 -1.89722974E-01  9.61128337E-02  4.52352809E-03  2.69158995E-01
  1.28831198E-01 -1.91085785E-01 -3.58413282E-03 -1.81872014E-01 -5.10175517E-02
  5.12143119E-01 -2.27724321E-02 -6.36305326E-03 -7.02983258E-02 -1.90564629E-01
 -1.61168769E-02 -2.24138512E-02 -8.53333101E-02  5.64597213E-01 -4.06821732E-01
  5.56627176E-01 -3.24914899E-01  8.70904820E-01 -6.07802377E-01  2.17162217E-01
 -1.76549133E-01 -2.46436126E-03  2.38396768E-02  3.04070011E-01  2.70138497E-01
 -2.15641525E-01 -6.87442282E-02 -3.52173455E-01 -3.21978995E-01  2.74837574E-01
  5.29497771E-03 -1.23324321E-02  7.14129432E-02  7.07048462E-02  6.18636074E-04
  4.68927053E-03 -7.40386075E-02 -6.72128433E-02  2.09215243E-02  1.75854482E-01
 -2.39066207E-01  4.07718758E-01 -6.06895125E-01 -6.07053247E-01  9.26708948E-01
  9.57979159E-01 -7.94552605E-01  2.05382637E-02 -1.56276030E-03  5.32321592E-01
  7.08249860E-02 -2.01817770E-01 -5.00761786E-02 -6.64407943E-01 -9.80041657E-02
  2.93989011E-01 -6.86159769E-03  1.30361526E-01  1.23176141E-01  4.31610137E-03
 -2.25616547E-02 -3.89247563E-02 -1.31798840E-01 -1.17805195E-02  1.78519164E-03
  6.62923490E-01 -8.82979994E-01  3.40590901E-01 -3.94609929E-01 -5.19767967E-01
  9.93588266E-01 -7.47608220E-01  6.23802407E-01 -6.54133920E-03  7.76761440E-03
  2.28223123E-01 -6.45466696E-01 -1.02343455E-02 -9.45572938E-03 -2.64900317E-01
  7.85503966E-01 -2.38878093E-03  4.03914440E-03 -4.71311147E-02  5.48597070E-02
 -1.35602428E-01  4.91156970E-03  2.41634040E-02 -4.89334730E-02  1.24291299E-01
  4.62611519E-03  7.16180895E-01 -1.10102072E+00 -8.53421059E-01  1.25687284E+00
 -2.47689226E-04 -6.18184377E-02  3.08808295E-01 -2.60366406E-01  3.89891876E-02
 -5.69101885E-01  7.94719792E-02  3.57452752E-02  1.75664763E-01  7.79978283E-02
 -5.76032974E-01 -2.31068891E-01 -9.78533816E-01  3.98048100E-02 -1.52990142E+00
  8.11165693E-02  3.32680911E-02  1.29044786E-01  2.37747307E+00 -5.72486239E-01
 -2.23627080E-01 -8.23142284E-01  2.26476724E-01 -5.57634489E-01  2.35357491E-01
 -5.77286615E-01  2.24083165E-01 -6.25137696E-01 -1.03333127E-02  9.81937467E-03
 -5.84086325E-02 -2.00488753E+00 -2.01962285E-02 -3.89928407E-03  2.97393029E-04
  4.76662136E+00  5.76077870E-01  1.97522404E-01  5.04781325E-01  2.09118673E-02
  5.88452986E-01  1.11820159E-02  3.89094730E-03  6.04188384E-02 -2.25134604E+00
  6.98799066E-01  2.76564755E-01  9.47090409E-01 -2.57779549E-01 -5.74795113E-01
 -2.71137781E-01 -5.96428623E-01 -3.61564431E-01 -6.17074115E-01 -6.20058703E-03
  7.09214564E-03
Total SCF Density                          R   N=         351
  2.03860895E+00  1.31569075E-01  1.10533948E-01 -2.30801472E-03  3.54949261E-03
  3.06768438E-01 -5.24695853E-04  1.13068991E-03  1.80338351E-03  3.02089258E-01
 -8.38702307E-03  1.04774543E-02  2.17913449E-02  9.70598310E-03  3.17588803E-01
 -4.80738345E-01  2.65209351E-01  2.59021581E-02  5.47516241E-03  4.65909281E-02
  1.04774062E+00 -2.04378488E-02  6.84001210E-03  2.43087008E-01 -1.51459959E-04
  1.21898058E-03  5.83271628E-02  2.02387150E-01 -7.44691766E-03  2.68676758E-03
 -1.68513870E-03  2.51088098E-01  1.37656887E-04  2.23485578E-02 -3.92834187E-03
  2.16124495E-01 -1.44947179E-02  9.40862141E-03  4.80535215E-03  3.29643731E-03
  2.33429958E-01  7.08798414E-02  2.94931762E-04  2.20421819E-04  1.83525702E-01
  6.76777419E-03 -1.30316554E-02 -2.44634201E-02 -9.24411738E-03 -4.17501126E-02
  1.00190484E-01  2.54292921E-02  1.02494601E-02  3.41347896E-02  2.05979442E+00
 -2.10243509E-02  1.50912884E-02  3.87865818E-02  1.46027570E-02  6.45783822E-02
 -2.72462448E-02  5.35102203E-03  1.60272686E-03  1.41962632E-02  7.30591076E-02
  1.53177693E-01  4.90264753E-02 -4.67477174E-02 -3.63478695E-02 -3.72958957E-02
 -1.86688183E-01 -2.10836253E-01 -2.22064994E-02 -4.86775504E-02 -1.52777530E-01
 -2.69422161E-02  8.96427886E-04  2.02198290E-01  1.82955050E-02 -1.84744952E-02
 -3.72198834E-02  5.22197409E-02 -7.61793256E-02 -6.99266186E-02 -5.37297041E-02
  7.67773254E-02 -6.26345078E-02 -1.12235210E-02  1.15982605E-03 -3.24258996E-02
  2.17222200E-01  6.21028576E-02 -5.96665724E-02 -1.63635400E-01 -6.64344305E-02
 -1.58523332E-01 -2.62958423E-01 -1.42130692E-01 -5.41710694E-02 -1.31962276E-01
 -3.65489594E-02  3.06039609E-03  1.56896063E-01  8.09206200E-02  2.39265016E-01
  1.19984152E-01 -6.00759327E-02 -4.38131753E-02 -1.84253103E-02 -2.75702281E-02
 -5.65983601E-01 -1.32998659E-01 -5.34272488E-02 -1.53929658E-01 -5.15386623E-01
  3.90995013E-01  2.39884395E-01  9.72587138E-02  3.20398460E-01  1.64859835E+00
 -2.17280796E-03 -1.57167425E-02 -1.85897338E-02 -1.24786287E-02 -1.15075463E-01
 -8.01250295E-02 -3.35861265E-03 -2.94732244E-02 -9.33717958E-02  5.12379654E-03
  5.56522259E-03  1.39632191E-01 -6.85626632E-02  7.85706901E-02  1.31418912E-01
  1.11206731E-01 -1.63133790E-03 -6.60246743E-03 -1.27596900E-02  1.84813142E-02
 -4.95724309E-02 -1.81010130E-02 -3.60677786E-02  5.33599691E-02 -4.09460746E-02
  1.73207546E-04  4.07278186E-03 -6.70077407E-02  2.23146294E-01  5.44695691E-02
  5.97716927E-02 -9.49408146E-02  2.42316454E-01 -6.25153864E-03 -1.78125729E-02
 -9.34350669E-02 -3.97608851E-02 -9.27329227E-02 -8.35930497E-02 -8.03066719E-02
 -2.98631616E-02 -7.57209247E-02  1.01579763E-02  7.09490694E-03  7.69609357E-02
  5.21676078E-02  1.26627214E-01  1.64738369E-01  3.84395932E-02  4.12339829E-02
  7.20872137E-02 -5.28578891E-02  4.98407744E-02 -1.74922093E-01  1.07287389E-01
 -1.57566680E-02  1.56583520E-01 -1.30791964E-01  8.61133382E-02 -4.96913009E-03
  4.23081240E-03 -1.05696760E-02  4.60559320E-03 -3.38567318E-03  3.73781478E-02
 -2.09353035E-02  2.28312033E-02 -2.77573114E-02  3.03066002E-02  1.77139738E-01
  2.60878883E-02  6.71792848E-03 -1.52753860E-01  8.51676628E-02 -2.64205032E-02
 -1.26495034E-02 -1.10360277E-01  5.39327056E-02 -1.75817522E-02  6.75430776E-03
 -8.42965558E-03  6.90251080E-02 -5.89846604E-02  6.42318579E-02  4.88370104E-02
  7.00431170E-02 -9.54506983E-02  3.20417814E-02  1.40858882E-01  1.56301325E-01
 -5.31124890E-02  4.96635966E-02 -3.91766973E-02 -2.00842146E-01 -2.59157893E-02
  1.64830678E-01 -2.95743512E-02 -1.58430019E-01 -1.36894129E-02  3.87124884E-03
 -9.90764054E-03 -2.19474452E-03 -2.65396978E-03  4.29866133E-02 -2.02978392E-02
 -8.43749613E-03  2.68759624E-02  3.89816659E-02 -2.45022807E-02 -5.14213973E-02
  1.76290837E-01  2.69082436E-02  5.53528281E-03 -4.17103807E-02 -1.60154897E-01
 -3.63642002E-02 -1.76190295E-03 -4.20606640E-02 -1.18667093E-01 -2.62479115E-02
  6.54328959E-03 -7.66985382E-03  5.05673526E-03  6.04959622E-02  7.96697263E-02
  5.09665574E-02 -2.23084313E-02  8.29673587E-02  5.12327335E-02 -4.53919692E-02
 -6.27436911E-02  1.29409333E-01  1.26174255E-01 -4.65864052E-02  4.38778797E-02
  1.12748605E-01  5.21365190E-02 -1.62179375E-01  1.48263940E-01  1.01312539E-01
  4.85463078E-02 -1.22347256E-01  6.31057359E-03 -1.17309099E-02  5.45431922E-02
  2.97959534E-02 -2.34387890E-02 -5.13989657E-02  4.47786874E-02  2.59937455E-02
 -1.76222848E-03 -1.36073053E-02 -3.03081267E-02 -9.93849542E-03 -2.38044233E-02
  1.70809171E-01  3.86269210E-02 -4.17049454E-03  7.41411576E-02  3.61863641E-02
 -1.62097789E-01 -3.69473622E-02  6.43295038E-02  3.33864504E-02 -1.25478870E-01
  1.28422818E-02 -1.32470041E-02  8.74349586E-02  4.39313635E-02  3.71836172E-02
  3.41537508E-02  5.43902453E-02  3.15876703E-02  2.13939412E-02 -2.87496672E-02
 -1.84308173E-02 -2.54380032E-02 -1.09517590E-02  1.23078099E-01  1.13455200E-01
  9.31745352E-04 -9.41316482E-05 -9.25060826E-03  1.84721011E-02  2.06407968E-03
 -1.05277266E-02  9.76789306E-03 -1.09487923E-02  1.70282207E-03 -3.84469625E-04
  1.89777246E-04  6.91443628E-02 -1.37044081E-01 -1.26602505E-02  1.01838910E-03
  8.02372071E-02 -1.58882969E-01 -1.48132688E-02  3.96276278E-02  8.65456921E-02
 -3.73207777E-02 -6.81560406E-02 -3.83507081E-03 -4.67138759E-03  1.12424736E-01
  1.85945765E-03 -1.53174966E-04 -2.23967336E-02  4.43277800E-02  4.26329331E-03
 -2.65079339E-02  2.50721369E-02 -2.91856830E-02  3.38967213E-03 -1.47823521E-03
  1.00825148E-03  1.74382714E-01 -3.43972436E-01 -3.10529201E-02  5.01515717E-03
  2.01835053E-01 -3.98564547E-01 -3.67059856E-02  9.83436544E-02  2.16267824E-01
 -9.22578288E-02 -1.69898176E-01 -9.10332166E-03 -1.12397133E-02  2.81912009E-01
  7.06934276E-01
Mulliken Charges                           R   N=           6
 -7.61449573E-01  1.11844311E-01  2.58027946E-01  2.82394275E-01  2.93344291E-01
 -1.84161251E-01
ONIOM Charges                              I   N=          16
           0           0           0           0           0           0
           0           0           0           0           0           0
           0           0           0           0
ONIOM Multiplicities                       I   N=          16
           1           0           0           0           0           0
           0           0           0           0           0           0
           0           0           0           0
Atom Layers                                I   N=           6
           1           1           1           1           1           1
Atom Modifiers                             I   N=           6
           0           0           0           0           0           0
Force Field                                I                0
Int Atom Modified Types                    I   N=           6
           0           0           0           0           0           0
Link Atoms                                 I   N=           6
           0           0           0           0           0           0
Atom Modified MM Charges                   R   N=           6
  0.00000000E+00  0.00000000E+00  0.00000000E+00  0.00000000E+00  0.00000000E+00
  0.00000000E+00
Link Distances                             R   N=          24