                                                                        
Freq      RB3LYP                                                      3-21G               
Number of atoms                            I                6
Info1-9                                    I   N=           9
          19          19           0           0           0         100
           6          18        -502
Charge                                     I                0
Multiplicity                               I                1
Number of electrons                        I               16
Number of alpha electrons                  I                8
Number of beta electrons                   I                8
Number of basis functions                  I               26
Number of independent functions            I               26
Number of point charges in /Mol/           I                0
Number of translation vectors              I                0
Atomic numbers                             I   N=           6
           6           6           1           1           1           1
Nuclear charges                            R   N=           6
  6.00000000E+00  6.00000000E+00  1.00000000E+00  1.00000000E+00  1.00000000E+00
  1.00000000E+00
Current cartesian coordinates              R   N=          18
 -1.27264820E+00 -5.61122271E-04 -5.17387214E-01  2.51078137E+00  7.14284178E-04
 -6.73707922E-01 -2.11461704E+00  1.71331395E+00  2.69101681E-01 -2.11793409E+00
 -1.69956541E+00  2.84495619E-01  1.47743211E+00  1.58103544E+00  3.26455279E-01
  1.51698566E+00 -1.59493730E+00  3.11039437E-01
Force Field                                I                0
Int Atom Types                             I   N=           6
           0           0           0           0           0           0
MM charges                                 R   N=           6
  0.00000000E+00  0.00000000E+00  0.00000000E+00  0.00000000E+00  0.00000000E+00
  0.00000000E+00
Integer atomic weights                     I   N=           6
          12          12           1           1           1           1
Real atomic weights                        R   N=           6
  1.20000000E+01  1.20000000E+01  1.00782504E+00  1.00782504E+00  1.00782504E+00
  1.00782504E+00
Atom fragment info                         I   N=           6
           0           0           0           0           0           0
Atom residue num                           I   N=           6
           0           0           0           0           0           0
Nuclear spins                              I   N=           6
           0           0           1           1           1           1
Nuclear ZEff                               R   N=           6
 -3.60000000E+00 -3.60000000E+00 -1.00000000E+00 -1.00000000E+00 -1.00000000E+00
 -1.00000000E+00
Nuclear ZNuc                               R   N=           6
  6.00000000E+00  6.00000000E+00  1.00000000E+00  1.00000000E+00  1.00000000E+00
  1.00000000E+00
Nuclear QMom                               R   N=           6
  0.00000000E+00  0.00000000E+00  0.00000000E+00  0.00000000E+00  0.00000000E+00
  0.00000000E+00
Nuclear GFac                               R   N=           6
  0.00000000E+00  0.00000000E+00  2.79284600E+00  2.79284600E+00  2.79284600E+00
  2.79284600E+00
MicOpt                                     I   N=           6
          -1          -1          -1          -1          -1          -1
Number of contracted shells                I               14
Number of primitive shells                 I               24
Pure/Cartesian d shells                    I                1
Pure/Cartesian f shells                    I                0
Highest angular momentum                   I                1
Largest degree of contraction              I                3
Shell types                                I   N=          14
           0          -1          -1           0          -1          -1
           0           0           0           0           0           0
           0           0
Number of primitives per shell             I   N=          14
           3           2           1           3           2           1
           2           1           2           1           2           1
           2           1
Shell to atom map                          I   N=          14
           1           1           1           2           2           2
           3           3           4           4           5           5
           6           6
Primitive exponents                        R   N=          24
  1.72256000E+02  2.59109000E+01  5.53335000E+00  3.66498000E+00  7.70545000E-01
  1.95857000E-01  1.72256000E+02  2.59109000E+01  5.53335000E+00  3.66498000E+00
  7.70545000E-01  1.95857000E-01  5.44717800E+00  8.24547240E-01  1.83191580E-01
  5.44717800E+00  8.24547240E-01  1.83191580E-01  5.44717800E+00  8.24547240E-01
  1.83191580E-01  5.44717800E+00  8.24547240E-01  1.83191580E-01
Contraction coefficients                   R   N=          24
  6.17669074E-02  3.58794043E-01  7.00713084E-01 -3.95895162E-01  1.21583436E+00
  1.00000000E+00  6.17669074E-02  3.58794043E-01  7.00713084E-01 -3.95895162E-01
  1.21583436E+00  1.00000000E+00  1.56284979E-01  9.04690877E-01  1.00000000E+00
  1.56284979E-01  9.04690877E-01  1.00000000E+00  1.56284979E-01  9.04690877E-01
  1.00000000E+00  1.56284979E-01  9.04690877E-01  1.00000000E+00
P(S=P) Contraction coefficients            R   N=          24
  0.00000000E+00  0.00000000E+00  0.00000000E+00  2.36459947E-01  8.60618806E-01
  1.00000000E+00  0.00000000E+00  0.00000000E+00  0.00000000E+00  2.36459947E-01
  8.60618806E-01  1.00000000E+00  0.00000000E+00  0.00000000E+00  0.00000000E+00
  0.00000000E+00  0.00000000E+00  0.00000000E+00  0.00000000E+00  0.00000000E+00
  0.00000000E+00  0.00000000E+00  0.00000000E+00  0.00000000E+00
Coordinates of each shell                  R   N=          42
 -1.27264820E+00 -5.61122271E-04 -5.17387214E-01 -1.27264820E+00 -5.61122271E-04
 -5.17387214E-01 -1.27264820E+00 -5.61122271E-04 -5.17387214E-01  2.51078137E+00
  7.14284178E-04 -6.73707922E-01  2.51078137E+00  7.14284178E-04 -6.73707922E-01
  2.51078137E+00  7.14284178E-04 -6.73707922E-01 -2.11461704E+00  1.71331395E+00
  2.69101681E-01 -2.11461704E+00  1.71331395E+00  2.69101681E-01 -2.11793409E+00
 -1.69956541E+00  2.84495619E-01 -2.11793409E+00 -1.69956541E+00  2.84495619E-01
  1.47743211E+00  1.58103544E+00  3.26455279E-01  1.47743211E+00  1.58103544E+00
  3.26455279E-01  1.51698566E+00 -1.59493730E+00  3.11039437E-01  1.51698566E+00
 -1.59493730E+00  3.11039437E-01
Constraint Structure                       R   N=          18
 -1.27264820E+00 -5.61122271E-04 -5.17387214E-01  2.51078137E+00  7.14284178E-04
 -6.73707922E-01 -2.11461704E+00  1.71331395E+00  2.69101681E-01 -2.11793409E+00
 -1.69956541E+00  2.84495619E-01  1.47743211E+00  1.58103544E+00  3.26455279E-01
  1.51698566E+00 -1.59493730E+00  3.11039437E-01
Num ILSW                                   I              100
ILSW                                       I   N=         100
           0           1           0           0           2           0
           0           0           0           0         402          -1
           0           0           0           0           2           0
           0           0           1           0           1           0
           1           1           0           0           0           0
           0           0      100000           0          -1           0
           0           0           0           0           0           0
           0           0           0           1           0           0
           0           0           1           0           0           0
           0           0           4          41           0           0
           0           0           5           0           0           0
           0           0           0           0           0           0
           0           0           0           0           0           0
           0           0           0           0           0           0
           0           0           0           0           0           0
           0           0           0           0           0           0
           0           0           0           0
Num RLSW                                   I               41
RLSW                                       R   N=          41
  8.00000000E-01  7.20000000E-01  1.00000000E+00  8.10000000E-01  2.00000000E-01
  0.00000000E+00  0.00000000E+00  1.00000000E+00  0.00000000E+00  0.00000000E+00
  0.00000000E+00  0.00000000E+00  1.00000000E+00  0.00000000E+00  0.00000000E+00
  0.00000000E+00  0.00000000E+00  1.00000000E+00  0.00000000E+00  0.00000000E+00
  0.00000000E+00  0.00000000E+00  1.00000000E+00  0.00000000E+00  0.00000000E+00
  0.00000000E+00  0.00000000E+00  1.00000000E+00  0.00000000E+00  0.00000000E+00
  0.00000000E+00  0.00000000E+00  1.00000000E+00  0.00000000E+00  0.00000000E+00
  0.00000000E+00  0.00000000E+00  0.00000000E+00  1.00000000E+00  1.00000000E+00
  0.00000000E+00
MxBond                                     I                2
NBond                                      I   N=           6
           2           2           1           1           1           1
IBond                                      I   N=          12
           3           4           5           6           1           0
           1           0           2           0           2           0
RBond                                      R   N=          12
  1.00000000E+00  1.00000000E+00  1.00000000E+00  1.00000000E+00  1.00000000E+00
  0.00000000E+00  1.00000000E+00  0.00000000E+00  1.00000000E+00  0.00000000E+00
  1.00000000E+00  0.00000000E+00
Virial Ratio                               R      2.010963618521245E+00
SCF Energy                                 R     -7.790410363042074E+01
Total Energy                               R     -7.790410363042074E+01
RMS Force                                  R      3.071924830840974E-02
RMS Density                                R      9.112648814806147E-09
External E-field                           R   N=          35
  0.00000000E+00  0.00000000E+00  0.00000000E+00  0.00000000E+00  0.00000000E+00
  0.00000000E+00  0.00000000E+00  0.00000000E+00  0.00000000E+00  0.00000000E+00
  0.00000000E+00  0.00000000E+00  0.00000000E+00  0.00000000E+00  0.00000000E+00
  0.00000000E+00  0.00000000E+00  0.00000000E+00  0.00000000E+00  0.00000000E+00
  0.00000000E+00  0.00000000E+00  0.00000000E+00  0.00000000E+00  0.00000000E+00
  0.00000000E+00  0.00000000E+00  0.00000000E+00  0.00000000E+00  0.00000000E+00
  0.00000000E+00  0.00000000E+00  0.00000000E+00  0.00000000E+00  0.00000000E+00
IOpCl                                      I                0
IROHF                                      I                0
Alpha Orbital Energies                     R   N=          26
 -1.02012681E+01 -1.01802328E+01 -7.49665386E-01 -6.26829127E-01 -4.73833648E-01
 -3.66275868E-01 -2.89803843E-01 -2.63019141E-01 -1.15318297E-01  4.87608803E-04
  1.02919662E-01  1.64735569E-01  1.79825777E-01  1.91890467E-01  6.89289127E-01
  7.07465181E-01  7.09342232E-01  7.72734070E-01  7.74326554E-01  8.43674324E-01
  9.62217996E-01  9.69837390E-01  1.05810388E+00  1.06246922E+00  1.44418672E+00
  1.56381911E+00
Alpha MO coefficients                      R   N=         676
  9.85546360E-01  1.04489280E-01 -3.09868433E-05  1.90466587E-05  2.56978176E-03
 -6.13290547E-02  2.25951643E-04 -8.39469202E-05 -7.77799706E-03  2.13115031E-03
 -7.66818197E-04 -3.39075204E-04  4.20901949E-06  1.20829335E-04  2.93799976E-03
 -4.74142897E-03 -4.93990283E-05 -9.46166324E-04 -1.83595493E-03  1.51667136E-02
 -1.90174601E-03  1.52506320E-02  4.06571281E-04  3.52478472E-03  3.14202861E-04
  3.40873007E-03 -2.79227182E-03 -1.85220062E-03  1.21593971E-03 -3.04627062E-06
  4.94054088E-04  9.05034832E-03  3.75332324E-03 -9.47358209E-06 -2.02136898E-03
  9.85663510E-01  1.04247472E-01 -4.61380846E-03 -7.92536300E-05  2.31345079E-03
 -6.16269534E-02  1.54885803E-02  2.57738527E-04 -9.51659560E-03  9.88005109E-06
 -2.41167313E-03  1.37413329E-05 -2.36604432E-03 -3.28432781E-04  1.63491022E-02
 -4.14440117E-04  1.66628897E-02 -1.53640482E-01  1.52718325E-01  1.19336071E-02
  4.66145089E-04  5.59993273E-02  4.30182515E-01  1.57807801E-02  6.07602710E-04
  6.55530867E-02 -1.27529682E-01  1.34063042E-01 -9.45000663E-02 -1.32802531E-03
  6.01973092E-02  3.44836127E-01 -7.12808179E-02 -1.05046710E-03  5.36881737E-02
  9.82119890E-02  1.60971577E-02  9.84906808E-02  1.58990858E-02  1.21480680E-01
  1.79172193E-02  1.21018541E-01  1.69211850E-02  1.38494860E-01 -1.48635678E-01
  1.43967401E-01  2.12622583E-04 -7.78959112E-02 -4.21225207E-01  7.68674646E-02
 -5.26714577E-04 -5.37210355E-02 -1.45529658E-01  1.50132154E-01 -6.12428665E-02
 -3.03653769E-03  6.92178153E-02  4.44526797E-01 -7.21188530E-02 -1.94360052E-03
  6.69202840E-02 -1.43617494E-01 -5.64853311E-02 -1.44861525E-01 -5.71306566E-02
  1.09486296E-01  3.09300765E-02  1.12979827E-01  3.18453156E-02  2.39235471E-04
 -4.86046398E-04  2.91054591E-03  3.41273870E-01 -1.57345534E-03 -1.66312969E-04
  2.09253309E-03  2.22296942E-01 -7.84779556E-04  5.84588968E-04 -6.00029516E-04
 -1.65615929E-03  1.71374236E-01 -2.37724246E-05 -1.99230443E-03 -4.87550477E-04
  7.52271655E-02 -1.61942998E-04  1.92090245E-01  1.63179162E-01 -1.93864920E-01
 -1.64536973E-01  1.27540190E-01  1.46227775E-01 -1.26714916E-01 -1.44555648E-01
 -1.33164747E-04 -1.87735924E-04  7.36922950E-03 -2.11533141E-01  1.02273473E-03
  1.05453762E-03  6.88852380E-03 -1.17356136E-01  9.71300301E-04  8.54375317E-04
 -1.25364377E-03 -5.49506596E-03  3.56517570E-01  2.38673437E-04 -2.05638654E-03
 -4.23466385E-03  2.27048773E-01  8.94196375E-04 -1.47587566E-01 -1.72756962E-01
  1.43003538E-01  1.67301732E-01  2.06349725E-01  2.40940515E-01 -2.06570985E-01
 -2.40557356E-01  6.95116930E-02 -4.68657462E-02 -2.97574656E-01 -8.45308642E-04
  1.45583051E-01 -3.64794607E-01 -3.29763108E-01  2.51977575E-04  1.19652852E-01
 -1.05361415E-01  1.05657040E-01  2.68475339E-01  8.33681909E-03  4.72127273E-02
  4.41004496E-01  2.39755266E-01  5.99289496E-03  5.08169307E-02  8.21332923E-02
  1.08645195E-01  8.50838993E-02  1.12837035E-01 -6.38674741E-03  2.13681757E-02
 -1.19576213E-02  1.03078610E-02 -5.09511830E-02  6.01593077E-02 -3.66465280E-02
 -1.41567200E-03 -2.80289967E-01  2.09122635E-01 -5.27131249E-02 -7.51145683E-04
 -3.53870451E-01 -8.87567275E-02  7.52110209E-02  9.98995599E-02  4.19892261E-03
 -2.82919944E-01  4.54400370E-01  6.27535876E-02  3.38186544E-03 -2.82009921E-01
 -2.13305801E-02 -1.80020636E-02 -2.09018483E-02 -1.70196467E-02 -9.26017462E-02
 -1.44801598E-01 -9.33648400E-02 -1.44545127E-01  2.01184834E-02 -2.97175346E-02
  1.85934913E-01  1.67670228E-03  3.48128483E-01 -6.87145171E-02  3.08476382E-01
  2.72216480E-03  4.39351054E-01 -3.11541309E-02  3.69818762E-02  1.22419950E-03
 -2.41671242E-03 -3.38173460E-01  1.32656508E-01  3.28832342E-02 -3.14036942E-03
 -3.88116422E-01  2.66983774E-02  3.73294746E-02  2.62900782E-02  3.66923819E-02
 -6.01195226E-02 -9.63067439E-02 -5.90158826E-02 -9.33904466E-02 -1.12120280E-01
  9.83211498E-02  3.04124284E-01  1.36595909E-04  1.00652079E-02  8.12946874E-01
  4.44135116E-01  2.36855901E-04  8.27744139E-02  2.79863358E-02 -3.35553031E-02
  4.11111889E-01 -4.23028270E-04  1.34642373E-01 -1.94143113E-01  6.21240191E-01
 -1.04219902E-03  1.96773831E-01 -4.50249199E-02 -2.74931554E-01 -4.59909962E-02
 -2.76495767E-01 -7.90471212E-02 -2.73714665E-02 -7.86554308E-02 -2.53154385E-02
 -9.80484121E-02  4.91734933E-02 -1.60216584E-01  4.17645035E-03  1.59129055E-01
  1.27579296E+00 -4.60121112E-01  1.24582894E-02  5.11093302E-01 -8.78679066E-02
  4.32266294E-02 -1.43506299E-01  7.63367124E-04  9.32577589E-02  1.09719921E+00
 -4.80916330E-01 -1.67493349E-03  3.58421738E-01 -3.75164321E-02 -9.21298026E-01
 -3.68185562E-02 -9.11830005E-01 -3.29815101E-02 -8.17688159E-01 -3.11930283E-02
 -8.08386958E-01  7.75407664E-04 -5.47193206E-04  3.62430881E-03  3.68273643E-01
 -1.87655307E-03 -1.43058776E-02  1.39793195E-02  1.18979882E+00 -8.42504881E-03
  4.75562022E-04 -1.40014860E-04 -2.93064445E-04  1.63641680E-01  1.46393796E-03
 -9.40187991E-03 -5.92724930E-04  5.51194232E-01  2.13803077E-03 -3.30549520E-02
 -1.14441843E+00  3.42419194E-02  1.17529777E+00 -4.92536902E-02 -7.75729188E-01
  4.79459151E-02  7.78317020E-01 -4.22468013E-03  1.81893686E-03 -1.88449571E-02
  1.56799565E-01  1.86983722E-03  6.46568288E-02 -4.68779182E-02  5.61052981E-01
  1.07950816E-02  6.98318362E-03 -3.99215824E-03  6.71140532E-03 -3.74247386E-01
 -1.68399966E-02 -8.51386420E-02  3.36864732E-02 -9.72818379E-01 -4.54492604E-02
 -1.04235150E-01 -8.20487101E-01  9.22592321E-02  6.82520016E-01  1.15906082E-01
  1.10172512E+00 -9.94626008E-02 -9.41662453E-01  6.13572702E-02 -2.66523240E-02
  2.43741608E-01  9.02302123E-03 -6.77952441E-02 -9.71099008E-01  5.73800575E-01
  3.68585557E-02 -2.47875021E-01 -9.62129836E-02  5.14320575E-02 -5.35951595E-02
 -3.03542377E-02  2.08326699E-01  1.29507903E+00 -3.91783002E-01 -8.42474127E-02
  6.00294245E-01  6.31500517E-02  8.84657724E-01  7.64886319E-02  9.84350835E-01
 -7.75101080E-02 -1.05408547E+00 -9.19142511E-02 -1.22177252E+00  1.97811698E-02
  2.53068001E-02 -4.55334258E-01 -8.05512744E-03  4.32176367E-01 -1.16211152E-01
  9.81281927E-01  1.69728438E-02 -5.96078473E-01  5.14935671E-02 -3.02848650E-02
 -3.87999534E-01 -2.62361964E-02  5.85088804E-01 -5.91148947E-01  8.26907723E-01
  4.17219329E-02 -5.87616398E-01  3.00466030E-01  1.02922837E-01  3.20649444E-01
  1.05126399E-01  4.58504743E-02  1.82802942E-01  7.47791907E-02  1.89885867E-01
 -2.02117993E-02  7.33870556E-02 -4.68198883E-01  4.68827894E-03 -8.07954906E-01
  1.96478739E-01  8.61790616E-01  4.33764707E-03  6.74489602E-01  1.04008661E-02
  6.92278861E-02 -3.49225456E-01  1.48144361E-01 -2.02061068E-01 -1.31149080E-01
  5.84383476E-01 -2.31662907E-01  1.60756402E-01  1.82877204E-01 -4.45987864E-02
  1.36624741E-01 -7.69200255E-03  1.50857470E-01 -2.50778507E-01 -4.39867799E-02
 -2.26186728E-01 -5.29036156E-03  1.79860546E-02 -7.91495170E-02 -3.73301790E-02
 -1.76973416E-01  4.06347433E-02  1.43583978E-01 -8.26639868E-03  1.56144423E-01
  1.28971681E-03  1.69500672E-02 -5.04075502E-02 -7.49314254E-01 -6.13067891E-02
 -2.12617079E-02  8.61270400E-02  1.17859863E+00  4.76121785E-02 -8.17429693E-02
  7.65178297E-02  1.27927606E-01 -9.67146024E-02 -4.70714759E-01 -1.60732391E-02
  4.95441114E-01 -8.09005294E-02  9.65576074E-03  3.33850655E-03  5.29300244E-02
  2.47378812E-01  3.99395045E-01 -8.76603700E-02  1.66092182E-01 -5.20037166E-01
 -5.94302956E-01 -9.44571085E-03 -6.17978281E-02 -5.53557056E-01 -4.93558703E-03
 -6.83029558E-01  5.81363993E-02  5.02060273E-01 -4.81805890E-02  8.40488067E-01
  2.25958541E-01  1.91174303E-01 -2.02223355E-02  7.94066326E-03 -2.71571068E-01
  2.86635296E-01 -1.90182674E-01 -1.35283997E-01  2.86518327E-03  2.43700155E-03
  2.30260179E-02 -8.15617051E-01  1.17858550E-01 -2.56010929E-02  4.72968474E-02
  1.72532885E+00 -1.80099390E-01 -2.89450716E-03 -1.96290148E-02 -1.58142122E-01
 -1.34691575E-03 -2.19379395E-01  2.64137267E-02  1.37347230E-01  1.57326375E-01
  2.69654635E-01 -3.73464167E-01 -2.85782146E-01  4.39750731E-01  3.45994265E-01
  6.74081723E-02 -6.70387111E-01 -1.92222747E-01  6.89793224E-01  3.87452580E-02
  8.96316034E-02 -4.87472655E-01  8.29787976E-03  2.02593513E-01 -5.34516042E-01
  7.42643928E-01 -1.45558193E-02 -4.57522107E-01 -1.83064751E-02  2.46683585E-01
  7.08866428E-01  2.86569757E-03 -4.21907288E-01 -5.57140550E-02 -6.26487563E-01
 -4.35774929E-03  5.43266901E-01  3.53124550E-01  1.46411763E-01  3.45094112E-01
  1.43294809E-01  1.66684503E-01 -3.64490127E-01  1.60089932E-01 -3.64159455E-01
  1.37439753E-03  9.24702158E-03  1.88045028E-02  4.01456297E-01 -1.15858516E-02
 -1.09594256E-02 -2.50284482E-02 -3.97512427E-01  4.15772302E-03 -4.09708995E-04
  2.70804103E-03  3.97643638E-05  6.05683752E-01 -9.02594651E-05 -6.26990306E-03
 -5.01530160E-03 -7.51419615E-01 -6.43297990E-03 -5.69194536E-01  6.21566451E-01
  6.19531594E-01 -6.70969540E-01 -5.24667262E-01  8.66821618E-01  5.16865578E-01
 -8.33348954E-01 -5.00309803E-02  1.25119434E-02 -7.00212430E-01  9.78999560E-03
  2.25080354E-01 -3.02475171E-01  9.01453618E-01 -1.62534876E-03 -1.67136967E-01
 -1.54090529E-02  1.31579276E-01  2.32735588E-02  1.24130873E-02 -2.00346255E-02
 -5.05045266E-02  1.12510826E-01 -1.47382765E-02  2.05287846E-01 -7.81027154E-01
  8.92272866E-01 -7.32382403E-01  8.46648289E-01 -1.63537421E-01 -2.24740120E-01
 -1.40314045E-01 -2.45679256E-01  2.28168425E-02  1.29176412E-01 -6.25189271E-02
 -3.86505799E-01 -1.05609256E-01 -3.75035814E-01 -2.50785484E-01  4.88252979E-01
  6.37875941E-02 -6.08436236E-02  2.20124472E-01  9.90440293E-02  2.81959878E-01
  2.03002378E-01 -3.84728350E-01 -4.01989903E-01 -4.88424242E-01 -1.47725466E-01
  5.39456969E-01 -9.03192760E-01 -2.09153026E-01  4.82394853E-01 -1.04713896E+00
  1.38074129E+00 -3.35184859E-01  6.91648830E-02  1.96674567E-02  1.02344151E-01
 -4.21188537E-02  4.50250814E-01 -9.42794802E-02 -2.95820641E-01 -2.19088415E-01
 -5.55055848E-01  6.51415642E-02 -5.05251474E-02  1.77837298E-01  8.10554125E-02
 -3.60546256E-01  1.68305501E-01 -3.10968194E-01 -3.39900794E-01  5.98921828E-01
 -1.19659651E-01 -3.07575720E-01  6.35160325E-01  5.91517045E-01 -9.97273009E-01
 -1.30318378E-01 -2.09489348E-01 -1.01220262E+00  1.40203376E+00  4.53103530E-02
 -1.57053164E+00 -1.72844605E-01 -1.36879348E-03 -1.21581531E-01  2.24013984E+00
 -2.50492448E-02  7.20866019E-03  4.48918140E-01  1.84485202E-02 -7.76043463E-01
  1.51483657E-01  1.73257016E-03 -4.11373857E-02  1.18606334E+00 -2.40527292E-01
 -6.08881278E-03  3.23295871E-01  1.10713601E-02 -6.35325476E-01  1.83427106E-02
 -6.40648493E-01 -1.73904101E-01 -5.11529871E-01 -1.59334581E-01 -5.22307806E-01
  1.71464494E-02  9.56130965E-01 -1.22515112E-01  7.59705952E-04 -1.22167033E-02
 -1.92766163E+00 -1.76881176E-01 -9.04963734E-04 -8.60608692E-02 -9.81565006E-04
 -1.63554435E+00  2.43968952E-01  9.63753201E-04 -7.29555967E-02  2.69639681E+00
 -1.10435774E+00 -1.55359532E-02  5.02214896E-01  2.03345467E-02  5.06627772E-01
  1.81938299E-02  5.08012809E-01 -1.95170456E-01 -6.32216203E-01 -1.96784231E-01
 -6.50404714E-01
Total SCF Density                          R   N=         351
  2.04304724E+00  1.05224421E-01  1.24305408E-01 -1.49338706E-03 -1.56861427E-02
  2.21653848E-01  1.99586300E-04 -2.60261966E-04 -4.51903765E-04  3.22434210E-01
  1.50792594E-02 -6.57300260E-03 -8.71857836E-02 -9.39993228E-04  2.17941915E-01
 -4.41823178E-01  3.03115566E-01  9.08022684E-02 -3.15486316E-04 -1.09946053E-01
  1.08627871E+00 -2.36072499E-02  6.56504584E-03  2.22754075E-01 -7.31910693E-04
 -7.66614393E-02  1.67418851E-01  2.35491979E-01 -2.48821201E-04  3.86289073E-05
 -6.67723719E-04  2.01379740E-01 -2.95484793E-04  1.57158428E-04 -8.35395595E-04
  1.26379350E-01  2.35089133E-03 -1.94179512E-02 -5.91733382E-02 -1.08946205E-04
  2.48885167E-01 -1.32725424E-01 -4.78053910E-02  1.52627849E-04  2.93580800E-01
 -8.02968941E-03  2.99338528E-04  2.66770718E-02  2.80274682E-04  2.84515491E-02
  7.02093134E-02  5.98620848E-02  1.18910434E-04  3.25020687E-02  2.05591931E+00
  5.32106311E-03 -5.08169756E-03 -2.17345819E-02 -8.25839849E-05 -1.96741315E-02
 -5.47867610E-02 -4.95385893E-02 -2.93522338E-05 -2.69106106E-02  9.19930304E-02
  1.36405452E-01  3.85768648E-02 -2.38529461E-02 -1.87096092E-01  3.43500753E-04
  2.11141567E-02 -1.83857629E-01 -2.00113722E-01  4.88484790E-04 -1.22489546E-02
 -4.14870623E-02  2.70870651E-02  1.89588444E-01  2.93905257E-04 -7.84466550E-05
  7.64865980E-05 -3.38879766E-02  5.87787751E-04 -2.21775982E-03 -8.21384832E-04
 -7.48763254E-03 -4.00717160E-04 -6.26235781E-04  9.37396019E-06  1.45323848E-03
  3.13144061E-01  3.62941922E-02 -4.06392505E-02  1.40134030E-02  6.89570946E-04
  1.68307908E-01 -1.59269177E-01  1.12508839E-02  3.82404540E-04  2.11976893E-01
  9.33438294E-03  4.82501415E-03 -5.10557181E-02 -2.00729318E-03  1.81385966E-01
  3.83080629E-02 -1.26376995E-02 -1.59734858E-01 -2.01098108E-03 -1.56998358E-01
 -2.10987691E-01 -2.60034844E-01 -9.12058846E-04 -2.18411001E-01 -5.12409444E-01
  3.74631515E-01  2.08560070E-01  5.41424431E-03 -1.12706362E-01  1.44259080E+00
  1.94325092E-02 -1.63012681E-02 -1.69783676E-01  7.78358038E-04  3.78661837E-02
 -1.48394270E-01 -1.78023936E-01  7.93571201E-04  1.13684457E-02  8.01523132E-03
  2.25839872E-02  1.63488926E-01  1.96282988E-03 -3.13666088E-02  1.53301349E-01
  1.43966463E-01  1.49678452E-04 -6.75523239E-05 -6.14353408E-04 -4.47320643E-02
  2.61957064E-04 -1.75973552E-03 -1.19615755E-03 -1.98468818E-02 -5.65530729E-04
 -4.57318531E-05  3.04098041E-04  1.58336739E-03  1.87820626E-01 -1.63726173E-03
  4.64117757E-03  1.74034933E-03  1.14525147E-01  3.60289454E-02 -4.23519911E-02
  1.09649253E-02  3.02249375E-04  1.68460713E-01 -1.65264656E-01  8.13839438E-03
  1.62478342E-04  2.11654717E-01 -1.25821920E-02  8.22038815E-04 -4.73238343E-02
 -1.48639478E-03  1.80054966E-01 -1.13782507E-01 -2.86265573E-02 -1.29441083E-03
  1.79129974E-01 -5.98548351E-02  6.19109398E-02 -8.73835177E-02  1.93502043E-01
  6.83301645E-02  1.36494006E-01 -7.21297240E-02  1.20387144E-01  6.24985678E-02
  3.21447597E-03 -2.49827904E-03  3.98556076E-02 -3.75948258E-02  1.16876018E-02
 -7.06292590E-03  4.45008100E-02 -3.69260643E-02  1.13793181E-02  1.92313146E-01
  2.63790233E-02  1.24433651E-02 -8.08236807E-02  1.84324085E-01  5.15368942E-02
 -2.76827270E-02 -7.96405963E-02  1.13254997E-01  4.61016486E-02 -1.21575279E-02
  7.31713633E-03  5.99866862E-02 -6.52912490E-02  1.44658696E-02  4.07956997E-02
  5.67750932E-02 -5.25340541E-02  1.50193696E-02  1.51629266E-01  1.44571632E-01
 -6.03103041E-02  6.23932091E-02 -8.74863426E-02 -1.92876554E-01  7.09825930E-02
  1.36557797E-01 -7.19151425E-02 -1.19408957E-01  6.42427230E-02  2.86024278E-03
 -2.37361757E-03  3.97100824E-02  3.73809107E-02  1.17420204E-02 -4.64275376E-03
  4.40251489E-02  3.70045403E-02  1.19455570E-02 -4.08598563E-02 -7.39604874E-02
  1.92797337E-01  2.66615775E-02  1.25082553E-02 -8.04766137E-02 -1.83235513E-01
  5.40123949E-02 -2.91401676E-02 -7.93003862E-02 -1.12260481E-01  4.76263281E-02
 -1.26886644E-02  7.65387030E-03  5.98979947E-02  6.49409265E-02  1.43707511E-02
  4.45775334E-02  5.64698482E-02  5.26392793E-02  1.54969348E-02 -7.38569340E-02
 -7.89319432E-02  1.51183908E-01  1.43678046E-01  2.35559880E-03 -6.10084040E-03
  4.87953300E-02  1.85473840E-04  4.66221690E-02 -2.14526173E-02  3.80152424E-02
  8.43889765E-03  6.83687672E-02 -4.52119004E-02  4.94284787E-02 -6.09889992E-02
  1.88977143E-01  8.16681300E-02  9.00173379E-02 -4.96812703E-02  1.11507966E-01
  7.96111798E-02 -1.65975617E-02 -3.61704694E-02  4.55779120E-03  2.01527243E-02
  1.88415321E-01  2.76501657E-02 -2.27038216E-02  1.16710139E-02 -1.72262131E-03
  8.46495512E-02 -8.64711715E-02  1.05492875E-02  8.67687020E-03  1.06739018E-01
  4.04561521E-02 -5.50973432E-04 -2.79179999E-02  2.20820673E-01  9.05757384E-02
 -7.64613447E-02 -1.66531329E-02  1.30538019E-01  8.99719784E-02 -1.06317569E-02
 -2.85583940E-02  1.64584830E-02  3.93167359E-02  1.74398827E-01  2.04832818E-01
  2.57528955E-03 -6.46695397E-03  4.55955797E-02  1.34968580E-03  4.47868137E-02
 -2.18245987E-02  3.55387317E-02 -7.68969498E-03  6.67384696E-02 -4.59742728E-02
  5.03842013E-02 -5.90922292E-02 -1.92714654E-01  8.18164385E-02  8.99189028E-02
 -4.91430555E-02 -1.14336673E-01  7.92390408E-02  5.63005609E-03  2.19261604E-02
 -1.69770855E-02 -3.59907519E-02 -4.59871428E-02 -9.87591441E-02  1.89996838E-01
  2.64045614E-02 -2.17745214E-02  9.68606840E-03  3.52675181E-03  8.09611429E-02
 -8.08212926E-02  1.00778202E-02 -7.59832159E-03  1.03203366E-01  4.21842907E-02
 -1.22003199E-03 -2.74773782E-02 -2.22355029E-01  8.91784340E-02 -8.27572095E-02
 -1.75421699E-02 -1.31990732E-01  8.79460877E-02  1.74952400E-02  4.03532046E-02
 -1.08616523E-02 -2.87509008E-02 -9.84363311E-02 -1.12749683E-01  1.74043045E-01
  2.02706889E-01
Mulliken Charges                           R   N=           6
 -4.92520453E-01 -3.39602558E-01  2.12290421E-01  2.12701405E-01  2.03161571E-01
  2.03969614E-01
ONIOM Charges                              I   N=          16
           0           0           0           0           0           0
           0           0           0           0           0           0
           0           0           0           0
ONIOM Multiplicities                       I   N=          16
           1           0           0           0           0           0
           0           0           0           0           0           0
           0           0           0           0
Atom Layers                                I   N=           6
           1           1           1           1           1           1
Atom Modifiers                             I   N=           6
           0           0           0           0           0           0
Force Field                                I                0
Int Atom Modified Types                    I   N=           6
           0           0           0           0           0           0
Link Atoms                                 I   N=           6
           0           0           0           0           0           0
Atom Modified MM Charges                   R   N=           6
  0.00000000E+00  0.00000000E+00  0.00000000E+00  0.00000000E+00  0.00000000E+00
  0.00000000E+00
Link Distances                             R   N=          24
  0.00000000E+00  0.00000000E+00  0.00000000E+00  0.00000000E+00  0.00000000E+00
  0.00000000E+00  0.00000000E+00  0.00000000E+00  0.00000000E+00  0.00000000E+00
  0.00000000E+00  0.00000000E+00  0.00000000E+00  0.00000000E+00  0.00000000E+00
  0.00000000E+00  0.00000000E+00  0.00000000E+00  0.00000000E+00  0.00000000E+00
  0.00000000E+00  0.00000000E+00  0.00000000E+00  0.00000000E+00